
     Program PWSCF v.7.5 starts on 12Nov2025 at 19:22:43 

     This program is part of the open-source Quantum ESPRESSO suite
     for quantum simulation of materials; please cite
         "P. Giannozzi et al., J. Phys.:Condens. Matter 21 395502 (2009);
         "P. Giannozzi et al., J. Phys.:Condens. Matter 29 465901 (2017);
         "P. Giannozzi et al., J. Chem. Phys. 152 154105 (2020);
          URL http://www.quantum-espresso.org", 
     in publications or presentations arising from this work. More details at
     http://www.quantum-espresso.org/quote

     Parallel version (MPI & OpenMP), running on       2 processor cores
     Number of MPI processes:                 1
     Threads/MPI process:                     2

     MPI processes distributed on     1 nodes
     7055 MiB available memory on the printing compute node when the environment starts

     Reading input from graphene_nscf.in

     Current dimensions of program PWSCF are:
     Max number of different atomic species (ntypx) = 10
     Max number of k-points (npk) =  40000
     Max angular momentum in pseudopotentials (lmaxx) =  4
     file C.pbe-n-kjpaw_psl.1.0.0.UPF: wavefunction(s)  2S 2P renormalized

     Atomic positions and unit cell read from directory:
     ./tmp/graphene.save/

     [opt_tetra]  Optimized tetrahedron method is used.

     Subspace diagonalization in iterative solution of the eigenvalue problem:
     a serial algorithm will be used


     G-vector sticks info
     --------------------
     sticks:   dense  smooth     PW     G-vecs:    dense   smooth      PW
     Sum         595     241     85                35435     8973    1713

     Using Slab Decomposition



     bravais-lattice index     =            4
     lattice parameter (alat)  =       4.6540  a.u.
     unit-cell volume          =     261.8973 (a.u.)^3
     number of atoms/cell      =            2
     number of atomic types    =            1
     number of electrons       =         8.00
     number of Kohn-Sham states=            8
     kinetic-energy cutoff     =      40.0000  Ry
     charge density cutoff     =     400.0000  Ry
     Exchange-correlation= SLA  PW   PBX  PBC
                           (   1   4   3   4   0   0   0)

     celldm(1)=   4.654000  celldm(2)=   0.000000  celldm(3)=   3.000000
     celldm(4)=   0.000000  celldm(5)=   0.000000  celldm(6)=   0.000000

     crystal axes: (cart. coord. in units of alat)
               a(1) = (   1.000000   0.000000   0.000000 )  
               a(2) = (  -0.500000   0.866025   0.000000 )  
               a(3) = (   0.000000   0.000000   3.000000 )  

     reciprocal axes: (cart. coord. in units 2 pi/alat)
               b(1) = (  1.000000  0.577350 -0.000000 )  
               b(2) = (  0.000000  1.154701  0.000000 )  
               b(3) = (  0.000000 -0.000000  0.333333 )  


     PseudoPot. # 1 for C  read from file:
     ./C.pbe-n-kjpaw_psl.1.0.0.UPF
     MD5 check sum: 5d2aebdfa2cae82b50a7e79e9516da0f
     Pseudo is Projector augmented-wave + core cor, Zval =  4.0
     Generated using "atomic" code by A. Dal Corso  v.5.1
     Shape of augmentation charge: PSQ
     Using radial grid of 1073 points,  4 beta functions with: 
                l(1) =   0
                l(2) =   0
                l(3) =   1
                l(4) =   1
     Q(r) pseudized with 0 coefficients 


     atomic species   valence    mass     pseudopotential
     C                 4.00    12.01070     C ( 1.00)

     24 Sym. Ops., with inversion, found (12 have fractional translation)



   Cartesian axes

     site n.     atom                  positions (alat units)
         1        C      tau(   1) = (   0.0000000   0.0000000   0.0000000  )
         2        C      tau(   2) = (   0.0000000   0.5773503   0.0000000  )

     number of k points=    19 (tetrahedron method)
                       cart. coord. in units 2pi/alat
        k(    1) = (   0.0000000   0.0000000   0.0000000), wk =   0.0138889
        k(    2) = (   0.0000000   0.0962250   0.0000000), wk =   0.0833333
        k(    3) = (   0.0000000   0.1924501   0.0000000), wk =   0.0833333
        k(    4) = (   0.0000000   0.2886751   0.0000000), wk =   0.0833333
        k(    5) = (   0.0000000   0.3849002   0.0000000), wk =   0.0833333
        k(    6) = (   0.0000000   0.4811252   0.0000000), wk =   0.0833333
        k(    7) = (   0.0000000  -0.5773503   0.0000000), wk =   0.0416667
        k(    8) = (   0.0833333   0.1443376   0.0000000), wk =   0.0833333
        k(    9) = (   0.0833333   0.2405626   0.0000000), wk =   0.1666667
        k(   10) = (   0.0833333   0.3367877   0.0000000), wk =   0.1666667
        k(   11) = (   0.0833333   0.4330127   0.0000000), wk =   0.1666667
        k(   12) = (   0.0833333   0.5292377   0.0000000), wk =   0.1666667
        k(   13) = (   0.1666667   0.2886751   0.0000000), wk =   0.0833333
        k(   14) = (   0.1666667   0.3849002   0.0000000), wk =   0.1666667
        k(   15) = (   0.1666667   0.4811252   0.0000000), wk =   0.1666667
        k(   16) = (   0.1666667   0.5773503   0.0000000), wk =   0.0833333
        k(   17) = (   0.2500000   0.4330127   0.0000000), wk =   0.0833333
        k(   18) = (   0.2500000   0.5292377   0.0000000), wk =   0.1666667
        k(   19) = (   0.3333333   0.5773503   0.0000000), wk =   0.0277778

     Dense  grid:    35435 G-vectors     FFT dimensions: (  30,  30,  90)

     Smooth grid:     8973 G-vectors     FFT dimensions: (  24,  24,  60)

     Estimated max dynamical RAM per process >      35.48 MB

     Check: negative core charge=   -0.000004

     The potential is recalculated from file :
     ./tmp/graphene.save/charge-density


     negative rho (up, down):  9.529E-06 0.000E+00
     Starting wfcs are    8 randomized atomic wfcs
     Checking if some PAW data can be deallocated... 

     Band Structure Calculation
     Davidson diagonalization with overlap

     ethr =  1.25E-10,  avg # of iterations = 30.3

     total cpu time spent up to now is       15.0 secs

     End of band structure calculation

          k = 0.0000 0.0000 0.0000 (  1133 PWs)   bands (ev):

   -18.6518  -6.7398  -2.1422  -2.1422   3.7458   7.1205   9.2647   9.2647

          k = 0.0000 0.0962 0.0000 (  1122 PWs)   bands (ev):

   -18.4875  -6.5431  -2.7938  -2.4822   3.9696   7.3345   9.2793   9.6498

          k = 0.0000 0.1925 0.0000 (  1132 PWs)   bands (ev):

   -17.9963  -5.9587  -4.4362  -3.2782   4.6409   7.9687   9.2395  10.2885

          k = 0.0000 0.2887 0.0000 (  1118 PWs)   bands (ev):

   -17.1840  -6.5397  -5.0055  -4.1619   5.7582   8.1271   8.9824   9.1010

          k = 0.0000 0.3849 0.0000 (  1118 PWs)   bands (ev):

   -16.0629  -8.7485  -4.8983  -3.7340   5.8402   7.3145   8.6681  10.5208

          k = 0.0000 0.4811 0.0000 (  1128 PWs)   bands (ev):

   -14.6637 -10.8544  -5.3733  -2.3073   3.6948   8.4109   9.3316  12.3163

          k = 0.0000-0.5774 0.0000 (  1120 PWs)   bands (ev):

   -13.3942 -12.3671  -5.5366  -1.4600   2.5932   8.3341  11.6595  11.7997

          k = 0.0833 0.1443 0.0000 (  1123 PWs)   bands (ev):

   -18.1597  -6.1524  -3.8305  -3.1628   4.4173   7.7600   9.5481  10.1139

          k = 0.0833 0.2406 0.0000 (  1115 PWs)   bands (ev):

   -17.5080  -5.5441  -5.3825  -4.1646   5.3122   8.5758   9.0586   9.7323

          k = 0.0833 0.3368 0.0000 (  1120 PWs)   bands (ev):

   -16.5412  -7.6225  -5.0545  -4.2637   6.6512   6.8618   9.5201   9.8646

          k = 0.0833 0.4330 0.0000 (  1117 PWs)   bands (ev):

   -15.2779  -9.7510  -5.6917  -2.8802   4.6455   8.4214   9.2560  11.4549

          k = 0.0833 0.5292 0.0000 (  1107 PWs)   bands (ev):

   -13.7940 -11.6982  -6.0213  -1.5669   2.8707   9.0737  10.6388  13.1911

          k = 0.1667 0.2887 0.0000 (  1127 PWs)   bands (ev):

   -16.7017  -6.8770  -5.5322  -4.4429   6.4295   7.3101   9.6101  10.9058

          k = 0.1667 0.3849 0.0000 (  1118 PWs)   bands (ev):

   -15.5914  -8.6087  -6.5918  -3.1863   5.3565   7.9863  10.9269  11.1712

          k = 0.1667 0.4811 0.0000 (  1115 PWs)   bands (ev):

   -14.2121 -10.5250  -7.1691  -1.7554   3.4381   9.9648  10.9844  12.2597

          k = 0.1667 0.5774 0.0000 (  1104 PWs)   bands (ev):

   -12.9724 -11.9660  -7.3544  -0.8599   2.3663  10.8852  12.2454  12.4212

          k = 0.2500 0.4330 0.0000 (  1111 PWs)   bands (ev):

   -14.3603  -9.6449  -8.0808  -1.8397   3.7370   9.7478  11.8464  13.1426

          k = 0.2500 0.5292 0.0000 (  1107 PWs)   bands (ev):

   -12.9340 -11.0708  -8.7900  -0.4500   2.2121  11.8795  11.9575  13.1414

          k = 0.3333 0.5774 0.0000 (  1137 PWs)   bands (ev):

   -11.7130 -11.7130  -9.6918   0.9096   0.9096  11.5868  13.6360  13.6360

     the Fermi energy is     0.9101 ev
     (compare with:     0.9097 eV, computed in scf)

     Writing all to output data dir ./tmp/graphene.save/ :
     XML data file, pseudopotentials, collected wavefunctions

     init_run     :      1.42s CPU      0.87s WALL (       1 calls)
     electrons    :     19.45s CPU     14.11s WALL (       1 calls)

     Called by init_run:
     wfcinit      :      0.00s CPU      0.00s WALL (       1 calls)
     potinit      :      0.60s CPU      0.38s WALL (       1 calls)
     hinit0       :      0.70s CPU      0.42s WALL (       1 calls)

     Called by electrons:
     c_bands      :     19.36s CPU     14.06s WALL (       1 calls)
     v_of_rho     :      0.05s CPU      0.03s WALL (       1 calls)
     newd         :      0.06s CPU      0.04s WALL (       1 calls)
     PAW_pot      :      0.14s CPU      0.08s WALL (       1 calls)

     Called by c_bands:
     init_us_2    :      0.01s CPU      0.01s WALL (      19 calls)
     cegterg      :     17.88s CPU     13.18s WALL (      40 calls)

     Called by *egterg:
     cdiaghg      :      0.15s CPU      0.10s WALL (     595 calls)
     h_psi        :     12.53s CPU      8.93s WALL (     635 calls)
     s_psi        :      0.76s CPU      0.65s WALL (     635 calls)
     g_psi        :      0.03s CPU      0.02s WALL (     576 calls)

     Called by h_psi:
     h_psi:calbec :      3.70s CPU      3.76s WALL (     635 calls)
     vloc_psi     :      8.36s CPU      4.81s WALL (     635 calls)
                                        0.00s GPU  (     635 calls)
     add_vuspsi   :      0.08s CPU      0.06s WALL (     635 calls)

     General routines
     calbec       :      3.69s CPU      3.76s WALL (     635 calls)
     fft          :      0.41s CPU      0.26s WALL (      13 calls)
     ffts         :      0.41s CPU      0.27s WALL (       1 calls)
     fftw         :      7.43s CPU      4.28s WALL (    5780 calls)
     interpolate  :      0.41s CPU      0.27s WALL (       1 calls)
     davcio       :      0.00s CPU      0.00s WALL (      38 calls)

     Parallel routines

     PWSCF        :     21.01s CPU     15.09s WALL


   This run was terminated on:  19:22:58  12Nov2025            

=------------------------------------------------------------------------------=
   JOB DONE.
=------------------------------------------------------------------------------=
Note: The following floating-point exceptions are signalling: IEEE_UNDERFLOW_FLAG IEEE_DENORMAL
