
     Program BANDS v.7.5 starts on 28Mar2026 at 15: 7:23 

     This program is part of the open-source Quantum ESPRESSO suite
     for quantum simulation of materials; please cite
         "P. Giannozzi et al., J. Phys.:Condens. Matter 21 395502 (2009);
         "P. Giannozzi et al., J. Phys.:Condens. Matter 29 465901 (2017);
         "P. Giannozzi et al., J. Chem. Phys. 152 154105 (2020);
          URL http://www.quantum-espresso.org", 
     in publications or presentations arising from this work. More details at
     http://www.quantum-espresso.org/quote

     Parallel version (MPI & OpenMP), running on       1 processor cores
     Number of MPI processes:                 1
     Threads/MPI process:                     1

     MPI processes distributed on     1 nodes
     6635 MiB available memory on the printing compute node when the environment starts


     Reading xml data from directory:

     ./tmp/graphene.save/
     file C.pbe-n-kjpaw_psl.1.0.0.UPF: wavefunction(s)  2S 2P renormalized

     IMPORTANT: XC functional enforced from input :
     Exchange-correlation= PBE
                           (   1   4   3   4   0   0   0)
     Any further DFT definition will be discarded
     Please, verify this is what you really want


     G-vector sticks info
     --------------------
     sticks:   dense  smooth     PW     G-vecs:    dense   smooth      PW
     Sum         595     241     85               117927    29947    5627

     Using Slab Decomposition


     Check: negative core charge=   -0.000002

     negative rho (up, down):  1.518E-04 0.000E+00
     Reading collected, re-writing distributed wavefunctions
     high-symmetry point:  0.0000 0.0000 0.0000   x coordinate   0.0000
     high-symmetry point:  0.3333 0.5773 0.0000   x coordinate   0.6666
     high-symmetry point:  0.5000 0.2887 0.0000   x coordinate   0.9999
     high-symmetry point:  0.0000 0.0000 0.0000   x coordinate   1.5773

     Plottable bands (eV) written to file graphene_band.dat.gnu
     Bands written to file graphene_band.dat

 **************************************************************************

                    xk=(   0.00000,   0.00000,   0.00000  )

     point group D_6h(6/mmm)
     there are 12 classes
     the character table:

       E     2C6   2C3   C2    3C2'  3C2'' i     2S3   2S6   s_h   3s_d  3s_v 
A_1g   1.00  1.00  1.00  1.00  1.00  1.00  1.00  1.00  1.00  1.00  1.00  1.00
A_2g   1.00  1.00  1.00  1.00 -1.00 -1.00  1.00  1.00  1.00  1.00 -1.00 -1.00
B_1g   1.00 -1.00  1.00 -1.00  1.00 -1.00  1.00 -1.00  1.00 -1.00  1.00 -1.00
B_2g   1.00 -1.00  1.00 -1.00 -1.00  1.00  1.00 -1.00  1.00 -1.00 -1.00  1.00
E_1g   2.00  1.00 -1.00 -2.00  0.00  0.00  2.00  1.00 -1.00 -2.00  0.00  0.00
E_2g   2.00 -1.00 -1.00  2.00  0.00  0.00  2.00 -1.00 -1.00  2.00  0.00  0.00
A_1u   1.00  1.00  1.00  1.00  1.00  1.00 -1.00 -1.00 -1.00 -1.00 -1.00 -1.00
A_2u   1.00  1.00  1.00  1.00 -1.00 -1.00 -1.00 -1.00 -1.00 -1.00  1.00  1.00
B_1u   1.00 -1.00  1.00 -1.00  1.00 -1.00 -1.00  1.00 -1.00  1.00 -1.00  1.00
B_2u   1.00 -1.00  1.00 -1.00 -1.00  1.00 -1.00  1.00 -1.00  1.00  1.00 -1.00
E_1u   2.00  1.00 -1.00 -2.00  0.00  0.00 -2.00 -1.00  1.00  2.00  0.00  0.00
E_2u   2.00 -1.00 -1.00  2.00  0.00  0.00 -2.00  1.00  1.00 -2.00  0.00  0.00

     the symmetry operations in each class and the name of the first element:

     E        1
                                                                 
     2C6      5    6
                                                                 
     2C3      7    8
                                                                 
     C2       2
                                                                 
     3C2'     4   12   11
                                                                 
     3C2''    3    9   10
                                                                 
     i       13
                                                                 
     2S3     17   18
                                                                 
     2S6     19   20
                                                                 
     s_h     14
                                                                 
     3s_d    16   24   23
                                                                 
     3s_v    15   21   22
                                                                 

     Band symmetry, D_6h(6/mmm) point group:

     e(  1 -  1) =    -22.25180  eV     1   --> A_1g           
     e(  2 -  2) =    -10.33995  eV     1   --> A_2u           
     e(  3 -  4) =     -5.74245  eV     2   --> E_2g           
     e(  5 -  5) =      0.49959  eV     1   --> A_1g           
     e(  6 -  6) =      1.11572  eV     1   --> A_2u           
     e(  7 -  7) =      1.20991  eV     1   --> A_1g           
     e(  8 -  8) =      1.83044  eV     1   --> A_2u           

 **************************************************************************

 **************************************************************************

                    xk=(   0.01666,   0.02886,   0.00000  )

     point group C_2v (mm2) 
     there are  4 classes
     the character table:

       E     C2    s_v   s_v' 
A_1    1.00  1.00  1.00  1.00
A_2    1.00  1.00 -1.00 -1.00
B_1    1.00 -1.00  1.00 -1.00
B_2    1.00 -1.00 -1.00  1.00

     the symmetry operations in each class and the name of the first element:

     E        1
                                                                 
     C2       2
                                                                 
     s_v      3
                                                                 
     s_v'     4
                                                                 

     Band symmetry, C_2v (mm2)  point group:

     e(  1 -  1) =    -22.23207  eV     1   --> A_1  D_1  S_1  
     e(  2 -  2) =    -10.31632  eV     1   --> B_2  D_4  S_4  
     e(  3 -  3) =     -5.82412  eV     1   --> B_1  D_3  S_3  
     e(  4 -  4) =     -5.78615  eV     1   --> A_1  D_1  S_1  
     e(  5 -  5) =      0.52644  eV     1   --> A_1  D_1  S_1  
     e(  6 -  6) =      1.14304  eV     1   --> B_2  D_4  S_4  
     e(  7 -  7) =      1.23740  eV     1   --> A_1  D_1  S_1  
     e(  8 -  8) =      1.85773  eV     1   --> B_2  D_4  S_4  

 **************************************************************************

 **************************************************************************

                    xk=(   0.03333,   0.05773,   0.00000  )

     Band symmetry, C_2v (mm2)  point group:

     e(  1 -  1) =    -22.17290  eV     1   --> A_1  D_1  S_1  
     e(  2 -  2) =    -10.24550  eV     1   --> B_2  D_4  S_4  
     e(  3 -  3) =     -6.05984  eV     1   --> B_1  D_3  S_3  
     e(  4 -  4) =     -5.91568  eV     1   --> A_1  D_1  S_1  
     e(  5 -  5) =      0.60702  eV     1   --> A_1  D_1  S_1  
     e(  6 -  6) =      1.22498  eV     1   --> B_2  D_4  S_4  
     e(  7 -  7) =      1.31987  eV     1   --> A_1  D_1  S_1  
     e(  8 -  8) =      1.93959  eV     1   --> B_2  D_4  S_4  

 **************************************************************************

 **************************************************************************

                    xk=(   0.04999,   0.08659,   0.00000  )

     Band symmetry, C_2v (mm2)  point group:

     e(  1 -  1) =    -22.07437  eV     1   --> A_1  D_1  S_1  
     e(  2 -  2) =    -10.12768  eV     1   --> B_2  D_4  S_4  
     e(  3 -  3) =     -6.42617  eV     1   --> B_1  D_3  S_3  
     e(  4 -  4) =     -6.12660  eV     1   --> A_1  D_1  S_1  
     e(  5 -  5) =      0.74133  eV     1   --> A_1  D_1  S_1  
     e(  6 -  6) =      1.36153  eV     1   --> B_2  D_4  S_4  
     e(  7 -  7) =      1.45732  eV     1   --> A_1  D_1  S_1  
     e(  8 -  8) =      2.07599  eV     1   --> B_2  D_4  S_4  

 **************************************************************************

 **************************************************************************

                    xk=(   0.06666,   0.11546,   0.00000  )

     Band symmetry, C_2v (mm2)  point group:

     e(  1 -  1) =    -21.93662  eV     1   --> A_1  D_1  S_1  
     e(  2 -  2) =     -9.96327  eV     1   --> B_2  D_4  S_4  
     e(  3 -  3) =     -6.89289  eV     1   --> B_1  D_3  S_3  
     e(  4 -  4) =     -6.41209  eV     1   --> A_1  D_1  S_1  
     e(  5 -  5) =      0.92940  eV     1   --> A_1  D_1  S_1  
     e(  6 -  6) =      1.55262  eV     1   --> B_2  D_4  S_4  
     e(  7 -  7) =      1.64976  eV     1   --> A_1  D_1  S_1  
     e(  8 -  8) =      2.26689  eV     1   --> B_2  D_4  S_4  

 **************************************************************************

 **************************************************************************

                    xk=(   0.08332,   0.14432,   0.00000  )

     Band symmetry, C_2v (mm2)  point group:

     e(  1 -  1) =    -21.75981  eV     1   --> A_1  D_1  S_1  
     e(  2 -  2) =     -9.75271  eV     1   --> B_2  D_4  S_4  
     e(  3 -  3) =     -7.43048  eV     1   --> B_1  D_3  S_3  
     e(  4 -  4) =     -6.76285  eV     1   --> A_1  D_1  S_1  
     e(  5 -  5) =      1.17121  eV     1   --> A_1  D_1  S_1  
     e(  6 -  6) =      1.79820  eV     1   --> B_2  D_4  S_4  
     e(  7 -  7) =      1.89719  eV     1   --> A_1  D_1  S_1  
     e(  8 -  8) =      2.51221  eV     1   --> B_2  D_4  S_4  

 **************************************************************************

 **************************************************************************

                    xk=(   0.09999,   0.17319,   0.00000  )

     Band symmetry, C_2v (mm2)  point group:

     e(  1 -  1) =    -21.54422  eV     1   --> A_1  D_1  S_1  
     e(  2 -  2) =     -9.49684  eV     1   --> B_2  D_4  S_4  
     e(  3 -  3) =     -8.01383  eV     1   --> B_1  D_3  S_3  
     e(  4 -  4) =     -7.16888  eV     1   --> A_1  D_1  S_1  
     e(  5 -  5) =      1.46673  eV     1   --> A_1  D_1  S_1  
     e(  6 -  6) =      2.09814  eV     1   --> B_2  D_4  S_4  
     e(  7 -  7) =      2.19962  eV     1   --> A_1  D_1  S_1  
     e(  8 -  8) =      2.81185  eV     1   --> B_2  D_4  S_4  

 **************************************************************************

 **************************************************************************

                    xk=(   0.11665,   0.20205,   0.00000  )

     Band symmetry, C_2v (mm2)  point group:

     e(  1 -  1) =    -21.29018  eV     1   --> A_1  D_1  S_1  
     e(  2 -  2) =     -9.19659  eV     1   --> B_2  D_4  S_4  
     e(  3 -  3) =     -8.62328  eV     1   --> B_1  D_3  S_3  
     e(  4 -  4) =     -7.61918  eV     1   --> A_1  D_1  S_1  
     e(  5 -  5) =      1.81585  eV     1   --> A_1  D_1  S_1  
     e(  6 -  6) =      2.45227  eV     1   --> B_2  D_4  S_4  
     e(  7 -  7) =      2.55704  eV     1   --> A_1  D_1  S_1  
     e(  8 -  8) =      3.16565  eV     1   --> B_2  D_4  S_4  

 **************************************************************************

 **************************************************************************

                    xk=(   0.13332,   0.23092,   0.00000  )

     Band symmetry, C_2v (mm2)  point group:

     e(  1 -  1) =    -20.99808  eV     1   --> A_1  D_1  S_1  
     e(  2 -  2) =     -9.24380  eV     1   --> B_1  D_3  S_3  
     e(  3 -  3) =     -8.85305  eV     1   --> B_2  D_4  S_4  
     e(  4 -  4) =     -8.10316  eV     1   --> A_1  D_1  S_1  
     e(  5 -  5) =      2.21845  eV     1   --> A_1  D_1  S_1  
     e(  6 -  6) =      2.86037  eV     1   --> B_2  D_4  S_4  
     e(  7 -  7) =      2.96944  eV     1   --> A_1  D_1  S_1  
     e(  8 -  8) =      3.57338  eV     1   --> B_2  D_4  S_4  

 **************************************************************************

 **************************************************************************

                    xk=(   0.14999,   0.25978,   0.00000  )

     Band symmetry, C_2v (mm2)  point group:

     e(  1 -  1) =    -20.66850  eV     1   --> A_1  D_1  S_1  
     e(  2 -  2) =     -9.86439  eV     1   --> B_1  D_3  S_3  
     e(  3 -  3) =     -8.61061  eV     1   --> A_1  D_1  S_1  
     e(  4 -  4) =     -8.46798  eV     1   --> B_2  D_4  S_4  
     e(  5 -  5) =      2.67428  eV     1   --> A_1  D_1  S_1  
     e(  6 -  6) =      3.32204  eV     1   --> B_2  D_4  S_4  
     e(  7 -  7) =      3.43683  eV     1   --> A_1  D_1  S_1  
     e(  8 -  8) =      4.03470  eV     1   --> B_2  D_4  S_4  

 **************************************************************************

 **************************************************************************

                    xk=(   0.16665,   0.28865,   0.00000  )

     Band symmetry, C_2v (mm2)  point group:

     e(  1 -  1) =    -20.30210  eV     1   --> A_1  D_1  S_1  
     e(  2 -  2) =    -10.47658  eV     1   --> B_1  D_3  S_3  
     e(  3 -  3) =     -9.13205  eV     1   --> A_1  D_1  S_1  
     e(  4 -  4) =     -8.04327  eV     1   --> B_2  D_4  S_4  
     e(  5 -  5) =      3.18304  eV     1   --> A_1  D_1  S_1  
     e(  6 -  6) =      3.71110  eV     1   --> A_2  D_2  S_2  
     e(  7 -  7) =      3.83667  eV     1   --> B_2  D_4  S_4  
     e(  8 -  8) =      3.95918  eV     1   --> A_1  D_1  S_1  

 **************************************************************************

 **************************************************************************

                    xk=(   0.18332,   0.31751,   0.00000  )

     Band symmetry, C_2v (mm2)  point group:

     e(  1 -  1) =    -19.89976  eV     1   --> A_1  D_1  S_1  
     e(  2 -  2) =    -11.07454  eV     1   --> B_1  D_3  S_3  
     e(  3 -  3) =     -9.65913  eV     1   --> A_1  D_1  S_1  
     e(  4 -  4) =     -7.58138  eV     1   --> B_2  D_4  S_4  
     e(  5 -  5) =      2.96499  eV     1   --> A_2  D_2  S_2  
     e(  6 -  6) =      3.74429  eV     1   --> A_1  D_1  S_1  
     e(  7 -  7) =      4.40326  eV     1   --> B_2  D_4  S_4  
     e(  8 -  8) =      4.53648  eV     1   --> A_1  D_1  S_1  

 **************************************************************************

 **************************************************************************

                    xk=(   0.19998,   0.34638,   0.00000  )

     Band symmetry, C_2v (mm2)  point group:

     e(  1 -  1) =    -19.46265  eV     1   --> A_1  D_1  S_1  
     e(  2 -  2) =    -11.65338  eV     1   --> B_1  D_3  S_3  
     e(  3 -  3) =    -10.18423  eV     1   --> A_1  D_1  S_1  
     e(  4 -  4) =     -7.08556  eV     1   --> B_2  D_4  S_4  
     e(  5 -  5) =      2.22793  eV     1   --> A_2  D_2  S_2  
     e(  6 -  6) =      4.35738  eV     1   --> A_1  D_1  S_1  
     e(  7 -  7) =      5.01988  eV     1   --> B_2  D_4  S_4  
     e(  8 -  8) =      5.16869  eV     1   --> A_1  D_1  S_1  

 **************************************************************************

 **************************************************************************

                    xk=(   0.21665,   0.37524,   0.00000  )

     Band symmetry, C_2v (mm2)  point group:

     e(  1 -  1) =    -18.99227  eV     1   --> A_1  D_1  S_1  
     e(  2 -  2) =    -12.20959  eV     1   --> B_1  D_3  S_3  
     e(  3 -  3) =    -10.70035  eV     1   --> A_1  D_1  S_1  
     e(  4 -  4) =     -6.55980  eV     1   --> B_2  D_4  S_4  
     e(  5 -  5) =      1.50726  eV     1   --> A_2  D_2  S_2  
     e(  6 -  6) =      5.02133  eV     1   --> A_1  D_1  S_1  
     e(  7 -  7) =      5.68262  eV     1   --> B_2  D_4  S_4  
     e(  8 -  8) =      5.85578  eV     1   --> A_1  D_1  S_1  

 **************************************************************************

 **************************************************************************

                    xk=(   0.23331,   0.40410,   0.00000  )

     Band symmetry, C_2v (mm2)  point group:

     e(  1 -  1) =    -18.49076  eV     1   --> A_1  D_1  S_1  
     e(  2 -  2) =    -12.74061  eV     1   --> B_1  D_3  S_3  
     e(  3 -  3) =    -11.20122  eV     1   --> A_1  D_1  S_1  
     e(  4 -  4) =     -6.00918  eV     1   --> B_2  D_4  S_4  
     e(  5 -  5) =      0.80906  eV     1   --> A_2  D_2  S_2  
     e(  6 -  6) =      5.73461  eV     1   --> A_1  D_1  S_1  
     e(  7 -  7) =      6.38207  eV     1   --> B_2  D_4  S_4  
     e(  8 -  8) =      6.59766  eV     1   --> A_1  D_1  S_1  

 **************************************************************************

 **************************************************************************

                    xk=(   0.24998,   0.43297,   0.00000  )

     Band symmetry, C_2v (mm2)  point group:

     e(  1 -  1) =    -17.96127  eV     1   --> A_1  D_1  S_1  
     e(  2 -  2) =    -13.24439  eV     1   --> B_1  D_3  S_3  
     e(  3 -  3) =    -11.68046  eV     1   --> A_1  D_1  S_1  
     e(  4 -  4) =     -5.44054  eV     1   --> B_2  D_4  S_4  
     e(  5 -  5) =      0.13813  eV     1   --> A_2  D_2  S_2  
     e(  6 -  6) =      6.49454  eV     1   --> A_1  D_1  S_1  
     e(  7 -  7) =      7.09058  eV     1   --> B_2  D_4  S_4  
     e(  8 -  8) =      7.39421  eV     1   --> A_1  D_1  S_1  

 **************************************************************************

 **************************************************************************

                    xk=(   0.26664,   0.46183,   0.00000  )

     Band symmetry, C_2v (mm2)  point group:

     e(  1 -  1) =    -17.40857  eV     1   --> A_1  D_1  S_1  
     e(  2 -  2) =    -13.71947  eV     1   --> B_1  D_3  S_3  
     e(  3 -  3) =    -12.13107  eV     1   --> A_1  D_1  S_1  
     e(  4 -  4) =     -4.86210  eV     1   --> B_2  D_4  S_4  
     e(  5 -  5) =     -0.50144  eV     1   --> A_2  D_2  S_2  
     e(  6 -  6) =      7.29627  eV     1   --> A_1  D_1  S_1  
     e(  7 -  7) =      7.71251  eV     1   --> B_2  D_4  S_4  
     e(  8 -  8) =      8.24518  eV     1   --> A_1  D_1  S_1  

 **************************************************************************

 **************************************************************************

                    xk=(   0.28330,   0.49070,   0.00000  )

     Band symmetry, C_2v (mm2)  point group:

     e(  1 -  1) =    -16.84087  eV     1   --> A_1  D_1  S_1  
     e(  2 -  2) =    -14.16459  eV     1   --> B_1  D_3  S_3  
     e(  3 -  3) =    -12.54366  eV     1   --> A_1  D_1  S_1  
     e(  4 -  4) =     -4.28432  eV     1   --> B_2  D_4  S_4  
     e(  5 -  5) =     -1.10633  eV     1   --> A_2  D_2  S_2  
     e(  6 -  6) =      8.03234  eV     1   --> B_2  D_4  S_4  
     e(  7 -  7) =      8.12970  eV     1   --> A_1  D_1  S_1  
     e(  8 -  8) =      9.14997  eV     1   --> A_1  D_1  S_1  

 **************************************************************************

 **************************************************************************

                    xk=(   0.29997,   0.51956,   0.00000  )

     Band symmetry, C_2v (mm2)  point group:

     e(  1 -  1) =    -16.27367  eV     1   --> A_1  D_1  S_1  
     e(  2 -  2) =    -14.57891  eV     1   --> B_1  D_3  S_3  
     e(  3 -  3) =    -12.90264  eV     1   --> A_1  D_1  S_1  
     e(  4 -  4) =     -3.71976  eV     1   --> B_2  D_4  S_4  
     e(  5 -  5) =     -1.67397  eV     1   --> A_2  D_2  S_2  
     e(  6 -  6) =      8.04458  eV     1   --> B_2  D_4  S_4  
     e(  7 -  7) =      8.97033  eV     1   --> A_1  D_1  S_1  
     e(  8 -  8) =     10.10620  eV     1   --> A_1  D_1  S_1  

 **************************************************************************

 **************************************************************************

                    xk=(   0.31663,   0.54843,   0.00000  )

     Band symmetry, C_2v (mm2)  point group:

     e(  1 -  1) =    -15.74015  eV     1   --> A_1  D_1  S_1  
     e(  2 -  2) =    -14.96166  eV     1   --> B_1  D_3  S_3  
     e(  3 -  3) =    -13.17559  eV     1   --> A_1  D_1  S_1  
     e(  4 -  4) =     -3.18323  eV     1   --> B_2  D_4  S_4  
     e(  5 -  5) =     -2.20197  eV     1   --> A_2  D_2  S_2  
     e(  6 -  6) =      7.97000  eV     1   --> B_2  D_4  S_4  
     e(  7 -  7) =      9.74509  eV     1   --> A_1  D_1  S_1  
     e(  8 -  8) =     10.33827  eV     1   --> B_1  D_3  S_3  

 **************************************************************************

 **************************************************************************

                    xk=(   0.33330,   0.57729,   0.00000  )

     Band symmetry, C_2v (mm2)  point group:

     e(  1 -  1) =    -15.31370  eV     1   --> A_1  D_1  S_1  
     e(  2 -  2) =    -15.31237  eV     1   --> B_1  D_3  S_3  
     e(  3 -  3) =    -13.29170  eV     1   --> A_1  D_1  S_1  
     e(  4 -  4) =     -2.69052  eV     1   --> B_2  D_4  S_4  
     e(  5 -  5) =     -2.68865  eV     1   --> A_2  D_2  S_2  
     e(  6 -  6) =      7.93200  eV     1   --> B_2  D_4  S_4  
     e(  7 -  7) =     10.21081  eV     1   --> A_1  D_1  S_1  
     e(  8 -  8) =     10.21151  eV     1   --> B_1  D_3  S_3  

 **************************************************************************

 **************************************************************************

                    xk=(   0.34164,   0.56286,   0.00000  )

     point group C_s (m)    
     there are  2 classes
     the character table:

       E     s    
A'     1.00  1.00
A''    1.00 -1.00

     the symmetry operations in each class and the name of the first element:

     E        1
                                                                 
     s        2
                                                                 

     Band symmetry, C_s (m)     point group:

     e(  1 -  1) =    -15.47646  eV     1   --> A'             
     e(  2 -  2) =    -15.17581  eV     1   --> A'             
     e(  3 -  3) =    -13.25561  eV     1   --> A'             
     e(  4 -  4) =     -2.91743  eV     1   --> A''            
     e(  5 -  5) =     -2.46411  eV     1   --> A''            
     e(  6 -  6) =      7.94343  eV     1   --> A''            
     e(  7 -  7) =     10.11317  eV     1   --> A'             
     e(  8 -  8) =     10.22660  eV     1   --> A'             

 **************************************************************************

 **************************************************************************

                    xk=(   0.34997,   0.54843,   0.00000  )

     Band symmetry, C_s (m)     point group:

     e(  1 -  1) =    -15.63138  eV     1   --> A'             
     e(  2 -  2) =    -15.10292  eV     1   --> A'             
     e(  3 -  3) =    -13.14465  eV     1   --> A'             
     e(  4 -  4) =     -3.13389  eV     1   --> A''            
     e(  5 -  5) =     -2.25542  eV     1   --> A''            
     e(  6 -  6) =      7.97905  eV     1   --> A''            
     e(  7 -  7) =      9.99827  eV     1   --> A'             
     e(  8 -  8) =     10.13813  eV     1   --> A'             

 **************************************************************************

 **************************************************************************

                    xk=(   0.35830,   0.53400,   0.00000  )

     Band symmetry, C_s (m)     point group:

     e(  1 -  1) =    -15.77811  eV     1   --> A'             
     e(  2 -  2) =    -15.08856  eV     1   --> A'             
     e(  3 -  3) =    -12.96522  eV     1   --> A'             
     e(  4 -  4) =     -3.33938  eV     1   --> A''            
     e(  5 -  5) =     -2.06430  eV     1   --> A''            
     e(  6 -  6) =      8.03972  eV     1   --> A''            
     e(  7 -  7) =      9.87129  eV     1   --> A'             
     e(  8 -  8) =      9.98636  eV     1   --> A'             

 **************************************************************************

 **************************************************************************

                    xk=(   0.36664,   0.51957,   0.00000  )

     Band symmetry, C_s (m)     point group:

     e(  1 -  1) =    -15.91655  eV     1   --> A'             
     e(  2 -  2) =    -15.11766  eV     1   --> A'             
     e(  3 -  3) =    -12.73311  eV     1   --> A'             
     e(  4 -  4) =     -3.53372  eV     1   --> A''            
     e(  5 -  5) =     -1.89169  eV     1   --> A''            
     e(  6 -  6) =      8.12484  eV     1   --> A''            
     e(  7 -  7) =      9.73726  eV     1   --> A'             
     e(  8 -  8) =      9.76886  eV     1   --> A'             

 **************************************************************************

 **************************************************************************

                    xk=(   0.37498,   0.50514,   0.00000  )

     Band symmetry, C_s (m)     point group:

     e(  1 -  1) =    -16.04673  eV     1   --> A'             
     e(  2 -  2) =    -15.17438  eV     1   --> A'             
     e(  3 -  3) =    -12.46539  eV     1   --> A'             
     e(  4 -  4) =     -3.71677  eV     1   --> A''            
     e(  5 -  5) =     -1.73790  eV     1   --> A''            
     e(  6 -  6) =      8.23229  eV     1   --> A''            
     e(  7 -  7) =      9.45664  eV     1   --> A'             
     e(  8 -  8) =      9.60024  eV     1   --> A'             

 **************************************************************************

 **************************************************************************

                    xk=(   0.38331,   0.49071,   0.00000  )

     Band symmetry, C_s (m)     point group:

     e(  1 -  1) =    -16.16859  eV     1   --> A'             
     e(  2 -  2) =    -15.24661  eV     1   --> A'             
     e(  3 -  3) =    -12.17542  eV     1   --> A'             
     e(  4 -  4) =     -3.88844  eV     1   --> A''            
     e(  5 -  5) =     -1.60289  eV     1   --> A''            
     e(  6 -  6) =      8.35828  eV     1   --> A''            
     e(  7 -  7) =      9.06242  eV     1   --> A'             
     e(  8 -  8) =      9.46365  eV     1   --> A'             

 **************************************************************************

 **************************************************************************

                    xk=(   0.39165,   0.47628,   0.00000  )

     Band symmetry, C_s (m)     point group:

     e(  1 -  1) =    -16.28214  eV     1   --> A'             
     e(  2 -  2) =    -15.32629  eV     1   --> A'             
     e(  3 -  3) =    -11.87298  eV     1   --> A'             
     e(  4 -  4) =     -4.04862  eV     1   --> A''            
     e(  5 -  5) =     -1.48608  eV     1   --> A''            
     e(  6 -  6) =      8.49723  eV     1   --> A''            
     e(  7 -  7) =      8.62736  eV     1   --> A'             
     e(  8 -  8) =      9.33016  eV     1   --> A'             

 **************************************************************************

 **************************************************************************

                    xk=(   0.39998,   0.46185,   0.00000  )

     Band symmetry, C_s (m)     point group:

     e(  1 -  1) =    -16.38733  eV     1   --> A'             
     e(  2 -  2) =    -15.40817  eV     1   --> A'             
     e(  3 -  3) =    -11.56514  eV     1   --> A'             
     e(  4 -  4) =     -4.19730  eV     1   --> A''            
     e(  5 -  5) =     -1.38655  eV     1   --> A''            
     e(  6 -  6) =      8.17713  eV     1   --> A'             
     e(  7 -  7) =      8.64185  eV     1   --> A''            
     e(  8 -  8) =      9.20179  eV     1   --> A'             

 **************************************************************************

 **************************************************************************

                    xk=(   0.40831,   0.44741,   0.00000  )

     Band symmetry, C_s (m)     point group:

     e(  1 -  1) =    -16.48420  eV     1   --> A'             
     e(  2 -  2) =    -15.48895  eV     1   --> A'             
     e(  3 -  3) =    -11.25736  eV     1   --> A'             
     e(  4 -  4) =     -4.33451  eV     1   --> A''            
     e(  5 -  5) =     -1.30303  eV     1   --> A''            
     e(  6 -  6) =      7.72644  eV     1   --> A'             
     e(  7 -  7) =      8.78329  eV     1   --> A''            
     e(  8 -  8) =      9.08014  eV     1   --> A'             

 **************************************************************************

 **************************************************************************

                    xk=(   0.41665,   0.43298,   0.00000  )

     Band symmetry, C_s (m)     point group:

     e(  1 -  1) =    -16.57264  eV     1   --> A'             
     e(  2 -  2) =    -15.56631  eV     1   --> A'             
     e(  3 -  3) =    -10.95436  eV     1   --> A'             
     e(  4 -  4) =     -4.45987  eV     1   --> A''            
     e(  5 -  5) =     -1.23387  eV     1   --> A''            
     e(  6 -  6) =      7.28528  eV     1   --> A'             
     e(  7 -  7) =      8.91191  eV     1   --> A''            
     e(  8 -  8) =      8.96648  eV     1   --> A'             

 **************************************************************************

 **************************************************************************

                    xk=(   0.42499,   0.41855,   0.00000  )

     Band symmetry, C_s (m)     point group:

     e(  1 -  1) =    -16.65269  eV     1   --> A'             
     e(  2 -  2) =    -15.63877  eV     1   --> A'             
     e(  3 -  3) =    -10.66062  eV     1   --> A'             
     e(  4 -  4) =     -4.57344  eV     1   --> A''            
     e(  5 -  5) =     -1.17750  eV     1   --> A''            
     e(  6 -  6) =      6.86079  eV     1   --> A'             
     e(  7 -  7) =      8.86171  eV     1   --> A'             
     e(  8 -  8) =      9.01894  eV     1   -->   ?

 **************************************************************************

 **************************************************************************

                    xk=(   0.43332,   0.40412,   0.00000  )

     Band symmetry, C_s (m)     point group:

     e(  1 -  1) =    -16.72439  eV     1   --> A'             
     e(  2 -  2) =    -15.70536  eV     1   --> A'             
     e(  3 -  3) =    -10.38021  eV     1   --> A'             
     e(  4 -  4) =     -4.67525  eV     1   --> A''            
     e(  5 -  5) =     -1.13221  eV     1   --> A''            
     e(  6 -  6) =      6.45965  eV     1   --> A'             
     e(  7 -  7) =      8.76655  eV     1   --> A'             
     e(  8 -  8) =      8.93758  eV     1   --> A'             

 **************************************************************************

 **************************************************************************

                    xk=(   0.44166,   0.38969,   0.00000  )

     Band symmetry, C_s (m)     point group:

     e(  1 -  1) =    -16.78765  eV     1   --> A'             
     e(  2 -  2) =    -15.76527  eV     1   --> A'             
     e(  3 -  3) =    -10.11764  eV     1   --> A'             
     e(  4 -  4) =     -4.76526  eV     1   --> A''            
     e(  5 -  5) =     -1.09649  eV     1   --> A''            
     e(  6 -  6) =      6.08766  eV     1   --> A'             
     e(  7 -  7) =      8.68157  eV     1   --> A'             
     e(  8 -  8) =      8.84589  eV     1   --> A'             

 **************************************************************************

 **************************************************************************

                    xk=(   0.44999,   0.37526,   0.00000  )

     Band symmetry, C_s (m)     point group:

     e(  1 -  1) =    -16.84248  eV     1   --> A'             
     e(  2 -  2) =    -15.81799  eV     1   --> A'             
     e(  3 -  3) =     -9.87723  eV     1   --> A'             
     e(  4 -  4) =     -4.84325  eV     1   --> A''            
     e(  5 -  5) =     -1.06870  eV     1   --> A''            
     e(  6 -  6) =      5.75063  eV     1   --> A'             
     e(  7 -  7) =      8.60722  eV     1   --> A'             
     e(  8 -  8) =      8.76604  eV     1   --> A'             

 **************************************************************************

 **************************************************************************

                    xk=(   0.45832,   0.36083,   0.00000  )

     Band symmetry, C_s (m)     point group:

     e(  1 -  1) =    -16.88889  eV     1   --> A'             
     e(  2 -  2) =    -15.86312  eV     1   --> A'             
     e(  3 -  3) =     -9.66345  eV     1   --> A'             
     e(  4 -  4) =     -4.90933  eV     1   --> A''            
     e(  5 -  5) =     -1.04757  eV     1   --> A''            
     e(  6 -  6) =      5.45376  eV     1   --> A'             
     e(  7 -  7) =      8.54383  eV     1   --> A'             
     e(  8 -  8) =      8.69820  eV     1   --> A'             

 **************************************************************************

 **************************************************************************

                    xk=(   0.46666,   0.34640,   0.00000  )

     Band symmetry, C_s (m)     point group:

     e(  1 -  1) =    -16.92686  eV     1   --> A'             
     e(  2 -  2) =    -15.90037  eV     1   --> A'             
     e(  3 -  3) =     -9.48081  eV     1   --> A'             
     e(  4 -  4) =     -4.96341  eV     1   --> A''            
     e(  5 -  5) =     -1.03184  eV     1   --> A''            
     e(  6 -  6) =      5.20238  eV     1   --> A'             
     e(  7 -  7) =      8.49165  eV     1   --> A'             
     e(  8 -  8) =      8.64251  eV     1   --> A'             

 **************************************************************************

 **************************************************************************

                    xk=(   0.47500,   0.33197,   0.00000  )

     Band symmetry, C_s (m)     point group:

     e(  1 -  1) =    -16.95641  eV     1   --> A'             
     e(  2 -  2) =    -15.92954  eV     1   --> A'             
     e(  3 -  3) =     -9.33356  eV     1   --> A'             
     e(  4 -  4) =     -5.00553  eV     1   --> A''            
     e(  5 -  5) =     -1.02069  eV     1   --> A''            
     e(  6 -  6) =      5.00112  eV     1   --> A'             
     e(  7 -  7) =      8.45088  eV     1   --> A'             
     e(  8 -  8) =      8.59908  eV     1   --> A'             

 **************************************************************************

 **************************************************************************

                    xk=(   0.48333,   0.31754,   0.00000  )

     Band symmetry, C_s (m)     point group:

     e(  1 -  1) =    -16.97752  eV     1   --> A'             
     e(  2 -  2) =    -15.95049  eV     1   --> A'             
     e(  3 -  3) =     -9.22531  eV     1   --> A'             
     e(  4 -  4) =     -5.03561  eV     1   --> A''            
     e(  5 -  5) =     -1.01325  eV     1   --> A''            
     e(  6 -  6) =      4.85403  eV     1   --> A'             
     e(  7 -  7) =      8.42167  eV     1   --> A'             
     e(  8 -  8) =      8.56800  eV     1   --> A'             

 **************************************************************************

 **************************************************************************

                    xk=(   0.49167,   0.30311,   0.00000  )

     zone border point and non-symmorphic group 
     symmetry decomposition not available

 **************************************************************************

 **************************************************************************

                    xk=(   0.50000,   0.28868,   0.00000  )

     zone border point and non-symmorphic group 
     symmetry decomposition not available

 **************************************************************************

 **************************************************************************

                    xk=(   0.47500,   0.27424,   0.00000  )

     point group C_2v (mm2) 
     there are  4 classes
     the character table:

       E     C2    s_v   s_v' 
A_1    1.00  1.00  1.00  1.00
A_2    1.00  1.00 -1.00 -1.00
B_1    1.00 -1.00  1.00 -1.00
B_2    1.00 -1.00 -1.00  1.00

     the symmetry operations in each class and the name of the first element:

     E        1
                                                                 
     C2       2
                                                                 
     s_v      3
                                                                 
     s_v'     4
                                                                 

     Band symmetry, C_2v (mm2)  point group:

     e(  1 -  1) =    -17.22394  eV     1   --> A_1  D_1  S_1  
     e(  2 -  2) =    -15.71568  eV     1   --> A_1  D_1  S_1  
     e(  3 -  3) =     -9.12201  eV     1   --> B_1  D_3  S_3  
     e(  4 -  4) =     -5.15533  eV     1   --> B_2  D_4  S_4  
     e(  5 -  5) =     -0.88877  eV     1   --> B_2  D_4  S_4  
     e(  6 -  6) =      4.74175  eV     1   --> A_1  D_1  S_1  
     e(  7 -  7) =      7.71097  eV     1   --> A_1  D_1  S_1  
     e(  8 -  8) =      8.45574  eV     1   --> B_2  D_4  S_4  

 **************************************************************************

 **************************************************************************

                    xk=(   0.45000,   0.25981,   0.00000  )

     Band symmetry, C_2v (mm2)  point group:

     e(  1 -  1) =    -17.65377  eV     1   --> A_1  D_1  S_1  
     e(  2 -  2) =    -15.21989  eV     1   --> A_1  D_1  S_1  
     e(  3 -  3) =     -9.07785  eV     1   --> B_1  D_3  S_3  
     e(  4 -  4) =     -5.41289  eV     1   --> B_2  D_4  S_4  
     e(  5 -  5) =     -0.56204  eV     1   --> B_2  D_4  S_4  
     e(  6 -  6) =      4.76362  eV     1   --> A_1  D_1  S_1  
     e(  7 -  7) =      6.98877  eV     1   --> A_1  D_1  S_1  
     e(  8 -  8) =      7.71823  eV     1   --> B_2  D_4  S_4  

 **************************************************************************

 **************************************************************************

                    xk=(   0.42500,   0.24537,   0.00000  )

     Band symmetry, C_2v (mm2)  point group:

     e(  1 -  1) =    -18.11206  eV     1   --> A_1  D_1  S_1  
     e(  2 -  2) =    -14.65223  eV     1   --> A_1  D_1  S_1  
     e(  3 -  3) =     -9.00456  eV     1   --> B_1  D_3  S_3  
     e(  4 -  4) =     -5.77331  eV     1   --> B_2  D_4  S_4  
     e(  5 -  5) =     -0.08746  eV     1   --> B_2  D_4  S_4  
     e(  6 -  6) =      4.79871  eV     1   --> A_1  D_1  S_1  
     e(  7 -  7) =      6.30142  eV     1   --> A_1  D_1  S_1  
     e(  8 -  8) =      7.01463  eV     1   --> B_2  D_4  S_4  

 **************************************************************************

 **************************************************************************

                    xk=(   0.40000,   0.23094,   0.00000  )

     Band symmetry, C_2v (mm2)  point group:

     e(  1 -  1) =    -18.56228  eV     1   --> A_1  D_1  S_1  
     e(  2 -  2) =    -14.05015  eV     1   --> A_1  D_1  S_1  
     e(  3 -  3) =     -8.90270  eV     1   --> B_1  D_3  S_3  
     e(  4 -  4) =     -6.18593  eV     1   --> B_2  D_4  S_4  
     e(  5 -  5) =      0.48239  eV     1   --> B_2  D_4  S_4  
     e(  6 -  6) =      4.84277  eV     1   --> A_1  D_1  S_1  
     e(  7 -  7) =      5.65501  eV     1   --> A_1  D_1  S_1  
     e(  8 -  8) =      6.34805  eV     1   --> B_2  D_4  S_4  

 **************************************************************************

 **************************************************************************

                    xk=(   0.37500,   0.21651,   0.00000  )

     Band symmetry, C_2v (mm2)  point group:

     e(  1 -  1) =    -18.99416  eV     1   --> A_1  D_1  S_1  
     e(  2 -  2) =    -13.42529  eV     1   --> A_1  D_1  S_1  
     e(  3 -  3) =     -8.77301  eV     1   --> B_1  D_3  S_3  
     e(  4 -  4) =     -6.61838  eV     1   --> B_2  D_4  S_4  
     e(  5 -  5) =      1.11247  eV     1   --> B_2  D_4  S_4  
     e(  6 -  6) =      4.84694  eV     1   --> A_1  D_1  S_1  
     e(  7 -  7) =      5.09812  eV     1   --> A_1  D_1  S_1  
     e(  8 -  8) =      5.72003  eV     1   --> B_2  D_4  S_4  

 **************************************************************************

 **************************************************************************

                    xk=(   0.35000,   0.20207,   0.00000  )

     Band symmetry, C_2v (mm2)  point group:

     e(  1 -  1) =    -19.40356  eV     1   --> A_1  D_1  S_1  
     e(  2 -  2) =    -12.78366  eV     1   --> A_1  D_1  S_1  
     e(  3 -  3) =     -8.61695  eV     1   --> B_1  D_3  S_3  
     e(  4 -  4) =     -7.05112  eV     1   --> B_2  D_4  S_4  
     e(  5 -  5) =      1.77939  eV     1   --> B_2  D_4  S_4  
     e(  6 -  6) =      4.41899  eV     1   --> A_1  D_1  S_1  
     e(  7 -  7) =      5.01920  eV     1   --> A_1  D_1  S_1  
     e(  8 -  8) =      5.13171  eV     1   --> B_2  D_4  S_4  

 **************************************************************************

 **************************************************************************

                    xk=(   0.32500,   0.18764,   0.00000  )

     Band symmetry, C_2v (mm2)  point group:

     e(  1 -  1) =    -19.78834  eV     1   --> A_1  D_1  S_1  
     e(  2 -  2) =    -12.12957  eV     1   --> A_1  D_1  S_1  
     e(  3 -  3) =     -8.43558  eV     1   --> B_1  D_3  S_3  
     e(  4 -  4) =     -7.47236  eV     1   --> B_2  D_4  S_4  
     e(  5 -  5) =      2.46593  eV     1   --> B_2  D_4  S_4  
     e(  6 -  6) =      3.89060  eV     1   --> A_1  D_1  S_1  
     e(  7 -  7) =      4.58467  eV     1   --> B_2  D_4  S_4  
     e(  8 -  8) =      4.69290  eV     1   --> A_1  D_1  S_1  

 **************************************************************************

 **************************************************************************

                    xk=(   0.30000,   0.17321,   0.00000  )

     Band symmetry, C_2v (mm2)  point group:

     e(  1 -  1) =    -20.14723  eV     1   --> A_1  D_1  S_1  
     e(  2 -  2) =    -11.46795  eV     1   --> A_1  D_1  S_1  
     e(  3 -  3) =     -8.23114  eV     1   --> B_1  D_3  S_3  
     e(  4 -  4) =     -7.87479  eV     1   --> B_2  D_4  S_4  
     e(  5 -  5) =      3.15182  eV     1   --> B_2  D_4  S_4  
     e(  6 -  6) =      3.39313  eV     1   --> A_1  D_1  S_1  
     e(  7 -  7) =      4.08541  eV     1   --> B_2  D_4  S_4  
     e(  8 -  8) =      4.17893  eV     1   --> A_1  D_1  S_1  

 **************************************************************************

 **************************************************************************

                    xk=(   0.27500,   0.15877,   0.00000  )

     Band symmetry, C_2v (mm2)  point group:

     e(  1 -  1) =    -20.47934  eV     1   --> A_1  D_1  S_1  
     e(  2 -  2) =    -10.80289  eV     1   --> A_1  D_1  S_1  
     e(  3 -  3) =     -8.25356  eV     1   --> B_2  D_4  S_4  
     e(  4 -  4) =     -8.00568  eV     1   --> B_1  D_3  S_3  
     e(  5 -  5) =      2.93314  eV     1   --> A_1  D_1  S_1  
     e(  6 -  6) =      3.54063  eV     1   --> B_2  D_4  S_4  
     e(  7 -  7) =      3.70498  eV     1   --> A_1  D_1  S_1  
     e(  8 -  8) =      3.90276  eV     1   --> B_2  D_4  S_4  

 **************************************************************************

 **************************************************************************

                    xk=(   0.25000,   0.14434,   0.00000  )

     Band symmetry, C_2v (mm2)  point group:

     e(  1 -  1) =    -20.78406  eV     1   --> A_1  D_1  S_1  
     e(  2 -  2) =    -10.13994  eV     1   --> A_1  D_1  S_1  
     e(  3 -  3) =     -8.60548  eV     1   --> B_2  D_4  S_4  
     e(  4 -  4) =     -7.76222  eV     1   --> B_1  D_3  S_3  
     e(  5 -  5) =      2.51205  eV     1   --> A_1  D_1  S_1  
     e(  6 -  6) =      3.15409  eV     1   --> B_2  D_4  S_4  
     e(  7 -  7) =      3.27205  eV     1   --> A_1  D_1  S_1  
     e(  8 -  8) =      3.86021  eV     1   --> B_2  D_4  S_4  

 **************************************************************************

 **************************************************************************

                    xk=(   0.22500,   0.12990,   0.00000  )

     Band symmetry, C_2v (mm2)  point group:

     e(  1 -  1) =    -21.06089  eV     1   --> A_1  D_1  S_1  
     e(  2 -  2) =     -9.48549  eV     1   --> A_1  D_1  S_1  
     e(  3 -  3) =     -8.92815  eV     1   --> B_2  D_4  S_4  
     e(  4 -  4) =     -7.50487  eV     1   --> B_1  D_3  S_3  
     e(  5 -  5) =      2.13043  eV     1   --> A_1  D_1  S_1  
     e(  6 -  6) =      2.77079  eV     1   --> B_2  D_4  S_4  
     e(  7 -  7) =      2.88028  eV     1   --> A_1  D_1  S_1  
     e(  8 -  8) =      3.48292  eV     1   --> B_2  D_4  S_4  

 **************************************************************************

 **************************************************************************

                    xk=(   0.20000,   0.11547,   0.00000  )

     Band symmetry, C_2v (mm2)  point group:

     e(  1 -  1) =    -21.30943  eV     1   --> A_1  D_1  S_1  
     e(  2 -  2) =     -9.21996  eV     1   --> B_2  D_4  S_4  
     e(  3 -  3) =     -8.84695  eV     1   --> A_1  D_1  S_1  
     e(  4 -  4) =     -7.23818  eV     1   --> B_1  D_3  S_3  
     e(  5 -  5) =      1.78857  eV     1   --> A_1  D_1  S_1  
     e(  6 -  6) =      2.42480  eV     1   --> B_2  D_4  S_4  
     e(  7 -  7) =      2.52973  eV     1   --> A_1  D_1  S_1  
     e(  8 -  8) =      3.13796  eV     1   --> B_2  D_4  S_4  

 **************************************************************************

 **************************************************************************

                    xk=(   0.17500,   0.10104,   0.00000  )

     Band symmetry, C_2v (mm2)  point group:

     e(  1 -  1) =    -21.52939  eV     1   --> A_1  D_1  S_1  
     e(  2 -  2) =     -9.47960  eV     1   --> B_2  D_4  S_4  
     e(  3 -  3) =     -8.23347  eV     1   --> A_1  D_1  S_1  
     e(  4 -  4) =     -6.96819  eV     1   --> B_1  D_3  S_3  
     e(  5 -  5) =      1.48669  eV     1   --> A_1  D_1  S_1  
     e(  6 -  6) =      2.11860  eV     1   --> B_2  D_4  S_4  
     e(  7 -  7) =      2.22040  eV     1   --> A_1  D_1  S_1  
     e(  8 -  8) =      2.83223  eV     1   --> B_2  D_4  S_4  

 **************************************************************************

 **************************************************************************

                    xk=(   0.15000,   0.08660,   0.00000  )

     Band symmetry, C_2v (mm2)  point group:

     e(  1 -  1) =    -21.72046  eV     1   --> A_1  D_1  S_1  
     e(  2 -  2) =     -9.70609  eV     1   --> B_2  D_4  S_4  
     e(  3 -  3) =     -7.65587  eV     1   --> A_1  D_1  S_1  
     e(  4 -  4) =     -6.70192  eV     1   --> B_1  D_3  S_3  
     e(  5 -  5) =      1.22490  eV     1   --> A_1  D_1  S_1  
     e(  6 -  6) =      1.85284  eV     1   --> B_2  D_4  S_4  
     e(  7 -  7) =      1.95231  eV     1   --> A_1  D_1  S_1  
     e(  8 -  8) =      2.56678  eV     1   --> B_2  D_4  S_4  

 **************************************************************************

 **************************************************************************

                    xk=(   0.12500,   0.07217,   0.00000  )

     Band symmetry, C_2v (mm2)  point group:

     e(  1 -  1) =    -21.88247  eV     1   --> A_1  D_1  S_1  
     e(  2 -  2) =     -9.89876  eV     1   --> B_2  D_4  S_4  
     e(  3 -  3) =     -7.12709  eV     1   --> A_1  D_1  S_1  
     e(  4 -  4) =     -6.44850  eV     1   --> B_1  D_3  S_3  
     e(  5 -  5) =      1.00331  eV     1   --> A_1  D_1  S_1  
     e(  6 -  6) =      1.62776  eV     1   --> B_2  D_4  S_4  
     e(  7 -  7) =      1.72546  eV     1   --> A_1  D_1  S_1  
     e(  8 -  8) =      2.34195  eV     1   --> B_2  D_4  S_4  

 **************************************************************************

 **************************************************************************

                    xk=(   0.10000,   0.05774,   0.00000  )

     Band symmetry, C_2v (mm2)  point group:

     e(  1 -  1) =    -22.01525  eV     1   --> A_1  D_1  S_1  
     e(  2 -  2) =    -10.05706  eV     1   --> B_2  D_4  S_4  
     e(  3 -  3) =     -6.66172  eV     1   --> A_1  D_1  S_1  
     e(  4 -  4) =     -6.21790  eV     1   --> B_1  D_3  S_3  
     e(  5 -  5) =      0.82197  eV     1   --> A_1  D_1  S_1  
     e(  6 -  6) =      1.44350  eV     1   --> B_2  D_4  S_4  
     e(  7 -  7) =      1.53986  eV     1   --> A_1  D_1  S_1  
     e(  8 -  8) =      2.15788  eV     1   --> B_2  D_4  S_4  

 **************************************************************************

 **************************************************************************

                    xk=(   0.07500,   0.04330,   0.00000  )

     Band symmetry, C_2v (mm2)  point group:

     e(  1 -  1) =    -22.11866  eV     1   --> A_1  D_1  S_1  
     e(  2 -  2) =    -10.18059  eV     1   --> B_2  D_4  S_4  
     e(  3 -  3) =     -6.27568  eV     1   --> A_1  D_1  S_1  
     e(  4 -  4) =     -6.02150  eV     1   --> B_1  D_3  S_3  
     e(  5 -  5) =      0.68092  eV     1   --> A_1  D_1  S_1  
     e(  6 -  6) =      1.30012  eV     1   --> B_2  D_4  S_4  
     e(  7 -  7) =      1.39551  eV     1   --> A_1  D_1  S_1  
     e(  8 -  8) =      2.01465  eV     1   --> B_2  D_4  S_4  

 **************************************************************************

 **************************************************************************

                    xk=(   0.05000,   0.02887,   0.00000  )

     Band symmetry, C_2v (mm2)  point group:

     e(  1 -  1) =    -22.19261  eV     1   --> A_1  D_1  S_1  
     e(  2 -  2) =    -10.26908  eV     1   --> B_2  D_4  S_4  
     e(  3 -  3) =     -5.98502  eV     1   --> A_1  D_1  S_1  
     e(  4 -  4) =     -5.87052  eV     1   --> B_1  D_3  S_3  
     e(  5 -  5) =      0.58017  eV     1   --> A_1  D_1  S_1  
     e(  6 -  6) =      1.19768  eV     1   --> B_2  D_4  S_4  
     e(  7 -  7) =      1.29240  eV     1   --> A_1  D_1  S_1  
     e(  8 -  8) =      1.91232  eV     1   --> B_2  D_4  S_4  

 **************************************************************************

 **************************************************************************

                    xk=(   0.02500,   0.01443,   0.00000  )

     Band symmetry, C_2v (mm2)  point group:

     e(  1 -  1) =    -22.23700  eV     1   --> A_1  D_1  S_1  
     e(  2 -  2) =    -10.32221  eV     1   --> B_2  D_4  S_4  
     e(  3 -  3) =     -5.80401  eV     1   --> A_1  D_1  S_1  
     e(  4 -  4) =     -5.77510  eV     1   --> B_1  D_3  S_3  
     e(  5 -  5) =      0.51973  eV     1   --> A_1  D_1  S_1  
     e(  6 -  6) =      1.13621  eV     1   --> B_2  D_4  S_4  
     e(  7 -  7) =      1.23054  eV     1   --> A_1  D_1  S_1  
     e(  8 -  8) =      1.85091  eV     1   --> B_2  D_4  S_4  

 **************************************************************************

 **************************************************************************

                    xk=(   0.00000,   0.00000,   0.00000  )

     point group D_6h(6/mmm)
     there are 12 classes
     the character table:

       E     2C6   2C3   C2    3C2'  3C2'' i     2S3   2S6   s_h   3s_d  3s_v 
A_1g   1.00  1.00  1.00  1.00  1.00  1.00  1.00  1.00  1.00  1.00  1.00  1.00
A_2g   1.00  1.00  1.00  1.00 -1.00 -1.00  1.00  1.00  1.00  1.00 -1.00 -1.00
B_1g   1.00 -1.00  1.00 -1.00  1.00 -1.00  1.00 -1.00  1.00 -1.00  1.00 -1.00
B_2g   1.00 -1.00  1.00 -1.00 -1.00  1.00  1.00 -1.00  1.00 -1.00 -1.00  1.00
E_1g   2.00  1.00 -1.00 -2.00  0.00  0.00  2.00  1.00 -1.00 -2.00  0.00  0.00
E_2g   2.00 -1.00 -1.00  2.00  0.00  0.00  2.00 -1.00 -1.00  2.00  0.00  0.00
A_1u   1.00  1.00  1.00  1.00  1.00  1.00 -1.00 -1.00 -1.00 -1.00 -1.00 -1.00
A_2u   1.00  1.00  1.00  1.00 -1.00 -1.00 -1.00 -1.00 -1.00 -1.00  1.00  1.00
B_1u   1.00 -1.00  1.00 -1.00  1.00 -1.00 -1.00  1.00 -1.00  1.00 -1.00  1.00
B_2u   1.00 -1.00  1.00 -1.00 -1.00  1.00 -1.00  1.00 -1.00  1.00  1.00 -1.00
E_1u   2.00  1.00 -1.00 -2.00  0.00  0.00 -2.00 -1.00  1.00  2.00  0.00  0.00
E_2u   2.00 -1.00 -1.00  2.00  0.00  0.00 -2.00  1.00  1.00 -2.00  0.00  0.00

     the symmetry operations in each class and the name of the first element:

     E        1
                                                                 
     2C6      5    6
                                                                 
     2C3      7    8
                                                                 
     C2       2
                                                                 
     3C2'     4   12   11
                                                                 
     3C2''    3    9   10
                                                                 
     i       13
                                                                 
     2S3     17   18
                                                                 
     2S6     19   20
                                                                 
     s_h     14
                                                                 
     3s_d    16   24   23
                                                                 
     3s_v    15   21   22
                                                                 

     Band symmetry, D_6h(6/mmm) point group:

     e(  1 -  1) =    -22.25180  eV     1   --> A_1g           
     e(  2 -  2) =    -10.33995  eV     1   --> A_2u           
     e(  3 -  4) =     -5.74245  eV     2   --> E_2g           
     e(  5 -  5) =      0.49959  eV     1   --> A_1g           
     e(  6 -  6) =      1.11572  eV     1   --> A_2u           
     e(  7 -  7) =      1.20991  eV     1   --> A_1g           
     e(  8 -  8) =      1.83044  eV     1   --> A_2u           

 **************************************************************************

     BANDS        :      9.76s CPU     12.85s WALL


   This run was terminated on:  15: 7:36  28Mar2026            

=------------------------------------------------------------------------------=
   JOB DONE.
=------------------------------------------------------------------------------=
