
     Program PWSCF v.7.5 starts on 28Mar2026 at 15: 5:55 

     This program is part of the open-source Quantum ESPRESSO suite
     for quantum simulation of materials; please cite
         "P. Giannozzi et al., J. Phys.:Condens. Matter 21 395502 (2009);
         "P. Giannozzi et al., J. Phys.:Condens. Matter 29 465901 (2017);
         "P. Giannozzi et al., J. Chem. Phys. 152 154105 (2020);
          URL http://www.quantum-espresso.org", 
     in publications or presentations arising from this work. More details at
     http://www.quantum-espresso.org/quote

     Parallel version (MPI & OpenMP), running on       1 processor cores
     Number of MPI processes:                 1
     Threads/MPI process:                     1

     MPI processes distributed on     1 nodes
     6664 MiB available memory on the printing compute node when the environment starts

     Reading input from graphene_band.in

     Current dimensions of program PWSCF are:
     Max number of different atomic species (ntypx) = 10
     Max number of k-points (npk) =  40000
     Max angular momentum in pseudopotentials (lmaxx) =  4
     file C.pbe-n-kjpaw_psl.1.0.0.UPF: wavefunction(s)  2S 2P renormalized

     Atomic positions and unit cell read from directory:
     ./tmp/graphene.save/


     Subspace diagonalization in iterative solution of the eigenvalue problem:
     a serial algorithm will be used


     G-vector sticks info
     --------------------
     sticks:   dense  smooth     PW     G-vecs:    dense   smooth      PW
     Sum         595     241     85               117927    29947    5627

     Using Slab Decomposition



     bravais-lattice index     =            4
     lattice parameter (alat)  =       4.6540  a.u.
     unit-cell volume          =     872.9910 (a.u.)^3
     number of atoms/cell      =            2
     number of atomic types    =            1
     number of electrons       =         8.00
     number of Kohn-Sham states=            8
     kinetic-energy cutoff     =      40.0000  Ry
     charge density cutoff     =     400.0000  Ry
     Exchange-correlation= SLA  PW   PBX  PBC
                           (   1   4   3   4   0   0   0)

     celldm(1)=   4.654000  celldm(2)=   0.000000  celldm(3)=  10.000000
     celldm(4)=   0.000000  celldm(5)=   0.000000  celldm(6)=   0.000000

     crystal axes: (cart. coord. in units of alat)
               a(1) = (   1.000000   0.000000   0.000000 )  
               a(2) = (  -0.500000   0.866025   0.000000 )  
               a(3) = (   0.000000   0.000000  10.000000 )  

     reciprocal axes: (cart. coord. in units 2 pi/alat)
               b(1) = (  1.000000  0.577350 -0.000000 )  
               b(2) = (  0.000000  1.154701  0.000000 )  
               b(3) = (  0.000000 -0.000000  0.100000 )  


     PseudoPot. # 1 for C  read from file:
     ./C.pbe-n-kjpaw_psl.1.0.0.UPF
     MD5 check sum: 5d2aebdfa2cae82b50a7e79e9516da0f
     Pseudo is Projector augmented-wave + core cor, Zval =  4.0
     Generated using "atomic" code by A. Dal Corso  v.5.1
     Shape of augmentation charge: PSQ
     Using radial grid of 1073 points,  4 beta functions with: 
                l(1) =   0
                l(2) =   0
                l(3) =   1
                l(4) =   1
     Q(r) pseudized with 0 coefficients 


     atomic species   valence    mass     pseudopotential
     C                 4.00    12.01070     C ( 1.00)

     24 Sym. Ops., with inversion, found (12 have fractional translation)



   Cartesian axes

     site n.     atom                  positions (alat units)
         1        C      tau(   1) = (   0.0000000   0.0000000   0.0000000  )
         2        C      tau(   2) = (   0.0000000   0.5773503   0.0000000  )

     number of k points=    61  Marzari-Vanderbilt smearing, width (Ry)=  0.0100
                       cart. coord. in units 2pi/alat
        k(    1) = (   0.0000000   0.0000000   0.0000000), wk =   0.0327869
        k(    2) = (   0.0166650   0.0288646   0.0000000), wk =   0.0327869
        k(    3) = (   0.0333300   0.0577293   0.0000000), wk =   0.0327869
        k(    4) = (   0.0499950   0.0865939   0.0000000), wk =   0.0327869
        k(    5) = (   0.0666600   0.1154585   0.0000000), wk =   0.0327869
        k(    6) = (   0.0833250   0.1443231   0.0000000), wk =   0.0327869
        k(    7) = (   0.0999900   0.1731878   0.0000000), wk =   0.0327869
        k(    8) = (   0.1166550   0.2020524   0.0000000), wk =   0.0327869
        k(    9) = (   0.1333200   0.2309170   0.0000000), wk =   0.0327869
        k(   10) = (   0.1499850   0.2597816   0.0000000), wk =   0.0327869
        k(   11) = (   0.1666500   0.2886463   0.0000000), wk =   0.0327869
        k(   12) = (   0.1833150   0.3175109   0.0000000), wk =   0.0327869
        k(   13) = (   0.1999800   0.3463755   0.0000000), wk =   0.0327869
        k(   14) = (   0.2166450   0.3752401   0.0000000), wk =   0.0327869
        k(   15) = (   0.2333100   0.4041048   0.0000000), wk =   0.0327869
        k(   16) = (   0.2499750   0.4329694   0.0000000), wk =   0.0327869
        k(   17) = (   0.2666400   0.4618340   0.0000000), wk =   0.0327869
        k(   18) = (   0.2833050   0.4906987   0.0000000), wk =   0.0327869
        k(   19) = (   0.2999700   0.5195633   0.0000000), wk =   0.0327869
        k(   20) = (   0.3166350   0.5484279   0.0000000), wk =   0.0327869
        k(   21) = (   0.3333000   0.5772925   0.0000000), wk =   0.0327869
        k(   22) = (   0.3416350   0.5628617   0.0000000), wk =   0.0327869
        k(   23) = (   0.3499700   0.5484308   0.0000000), wk =   0.0327869
        k(   24) = (   0.3583050   0.5339999   0.0000000), wk =   0.0327869
        k(   25) = (   0.3666400   0.5195691   0.0000000), wk =   0.0327869
        k(   26) = (   0.3749750   0.5051382   0.0000000), wk =   0.0327869
        k(   27) = (   0.3833100   0.4907073   0.0000000), wk =   0.0327869
        k(   28) = (   0.3916450   0.4762764   0.0000000), wk =   0.0327869
        k(   29) = (   0.3999800   0.4618456   0.0000000), wk =   0.0327869
        k(   30) = (   0.4083150   0.4474147   0.0000000), wk =   0.0327869
        k(   31) = (   0.4166500   0.4329838   0.0000000), wk =   0.0327869
        k(   32) = (   0.4249850   0.4185530   0.0000000), wk =   0.0327869
        k(   33) = (   0.4333200   0.4041221   0.0000000), wk =   0.0327869
        k(   34) = (   0.4416550   0.3896912   0.0000000), wk =   0.0327869
        k(   35) = (   0.4499900   0.3752604   0.0000000), wk =   0.0327869
        k(   36) = (   0.4583250   0.3608295   0.0000000), wk =   0.0327869
        k(   37) = (   0.4666600   0.3463986   0.0000000), wk =   0.0327869
        k(   38) = (   0.4749950   0.3319677   0.0000000), wk =   0.0327869
        k(   39) = (   0.4833300   0.3175369   0.0000000), wk =   0.0327869
        k(   40) = (   0.4916650   0.3031060   0.0000000), wk =   0.0327869
        k(   41) = (   0.5000000   0.2886751   0.0000000), wk =   0.0327869
        k(   42) = (   0.4750000   0.2742414   0.0000000), wk =   0.0327869
        k(   43) = (   0.4500000   0.2598076   0.0000000), wk =   0.0327869
        k(   44) = (   0.4250000   0.2453739   0.0000000), wk =   0.0327869
        k(   45) = (   0.4000000   0.2309401   0.0000000), wk =   0.0327869
        k(   46) = (   0.3750000   0.2165064   0.0000000), wk =   0.0327869
        k(   47) = (   0.3500000   0.2020726   0.0000000), wk =   0.0327869
        k(   48) = (   0.3250000   0.1876388   0.0000000), wk =   0.0327869
        k(   49) = (   0.3000000   0.1732051   0.0000000), wk =   0.0327869
        k(   50) = (   0.2750000   0.1587713   0.0000000), wk =   0.0327869
        k(   51) = (   0.2500000   0.1443376   0.0000000), wk =   0.0327869
        k(   52) = (   0.2250000   0.1299038   0.0000000), wk =   0.0327869
        k(   53) = (   0.2000000   0.1154701   0.0000000), wk =   0.0327869
        k(   54) = (   0.1750000   0.1010363   0.0000000), wk =   0.0327869
        k(   55) = (   0.1500000   0.0866025   0.0000000), wk =   0.0327869
        k(   56) = (   0.1250000   0.0721688   0.0000000), wk =   0.0327869
        k(   57) = (   0.1000000   0.0577350   0.0000000), wk =   0.0327869
        k(   58) = (   0.0750000   0.0433013   0.0000000), wk =   0.0327869
        k(   59) = (   0.0500000   0.0288675   0.0000000), wk =   0.0327869
        k(   60) = (   0.0250000   0.0144338   0.0000000), wk =   0.0327869
        k(   61) = (   0.0000000   0.0000000   0.0000000), wk =   0.0327869

     Dense  grid:   117927 G-vectors     FFT dimensions: (  30,  30, 300)

     Smooth grid:    29947 G-vectors     FFT dimensions: (  24,  24, 192)

     Estimated max dynamical RAM per process >     117.05 MB

     Check: negative core charge=   -0.000002

     The potential is recalculated from file :
     ./tmp/graphene.save/charge-density


     negative rho (up, down):  1.518E-04 0.000E+00
     Starting wfcs are    8 randomized atomic wfcs
     Checking if some PAW data can be deallocated... 

     Band Structure Calculation
     Davidson diagonalization with overlap
     c_bands:  1 eigenvalues not converged

     ethr =  1.25E-10,  avg # of iterations = 49.5

     total cpu time spent up to now is       14.6 secs

     End of band structure calculation

          k = 0.0000 0.0000 0.0000 (  3765 PWs)   bands (ev):

   -22.2518 -10.3400  -5.7424  -5.7424   0.4996   1.1157   1.2099   1.8304

          k = 0.0167 0.0289 0.0000 (  3763 PWs)   bands (ev):

   -22.2321 -10.3163  -5.8241  -5.7861   0.5264   1.1430   1.2374   1.8577

          k = 0.0333 0.0577 0.0000 (  3757 PWs)   bands (ev):

   -22.1729 -10.2455  -6.0598  -5.9157   0.6070   1.2250   1.3199   1.9396

          k = 0.0500 0.0866 0.0000 (  3747 PWs)   bands (ev):

   -22.0744 -10.1277  -6.4262  -6.1266   0.7413   1.3615   1.4573   2.0760

          k = 0.0667 0.1155 0.0000 (  3753 PWs)   bands (ev):

   -21.9366  -9.9633  -6.8929  -6.4121   0.9294   1.5526   1.6498   2.2669

          k = 0.0833 0.1443 0.0000 (  3745 PWs)   bands (ev):

   -21.7598  -9.7527  -7.4305  -6.7629   1.1712   1.7982   1.8972   2.5122

          k = 0.1000 0.1732 0.0000 (  3745 PWs)   bands (ev):

   -21.5442  -9.4968  -8.0138  -7.1689   1.4667   2.0981   2.1996   2.8119

          k = 0.1167 0.2021 0.0000 (  3749 PWs)   bands (ev):

   -21.2902  -9.1966  -8.6233  -7.6192   1.8159   2.4523   2.5570   3.1656

          k = 0.1333 0.2309 0.0000 (  3735 PWs)   bands (ev):

   -20.9981  -9.2438  -8.8530  -8.1032   2.2184   2.8604   2.9694   3.5734

          k = 0.1500 0.2598 0.0000 (  3741 PWs)   bands (ev):

   -20.6685  -9.8644  -8.6106  -8.4680   2.6743   3.3220   3.4368   4.0347

          k = 0.1666 0.2886 0.0000 (  3737 PWs)   bands (ev):

   -20.3021 -10.4766  -9.1320  -8.0433   3.1830   3.7111   3.8367   3.9592

          k = 0.1833 0.3175 0.0000 (  3745 PWs)   bands (ev):

   -19.8998 -11.0745  -9.6591  -7.5814   2.9650   3.7443   4.4033   4.5365

          k = 0.2000 0.3464 0.0000 (  3755 PWs)   bands (ev):

   -19.4627 -11.6534 -10.1842  -7.0856   2.2279   4.3574   5.0199   5.1687

          k = 0.2166 0.3752 0.0000 (  3751 PWs)   bands (ev):

   -18.9923 -12.2096 -10.7004  -6.5598   1.5073   5.0213   5.6826   5.8558

          k = 0.2333 0.4041 0.0000 (  3739 PWs)   bands (ev):

   -18.4908 -12.7406 -11.2012  -6.0092   0.8091   5.7346   6.3821   6.5977

          k = 0.2500 0.4330 0.0000 (  3731 PWs)   bands (ev):

   -17.9613 -13.2444 -11.6805  -5.4405   0.1381   6.4945   7.0906   7.3942

          k = 0.2666 0.4618 0.0000 (  3707 PWs)   bands (ev):

   -17.4086 -13.7195 -12.1311  -4.8621  -0.5014   7.2963   7.7125   8.2452

          k = 0.2833 0.4907 0.0000 (  3695 PWs)   bands (ev):

   -16.8409 -14.1646 -12.5437  -4.2843  -1.1063   8.0323   8.1297   9.1500

          k = 0.3000 0.5196 0.0000 (  3699 PWs)   bands (ev):

   -16.2737 -14.5789 -12.9026  -3.7198  -1.6740   8.0446   8.9703  10.1062

          k = 0.3166 0.5484 0.0000 (  3681 PWs)   bands (ev):

   -15.7401 -14.9617 -13.1756  -3.1832  -2.2020   7.9700   9.7451  10.3383

          k = 0.3333 0.5773 0.0000 (  3687 PWs)   bands (ev):

   -15.3137 -15.3124 -13.2917  -2.6905  -2.6887   7.9320  10.2108  10.2115

          k = 0.3416 0.5629 0.0000 (  3683 PWs)   bands (ev):

   -15.4765 -15.1758 -13.2556  -2.9174  -2.4641   7.9434  10.1132  10.2266

          k = 0.3500 0.5484 0.0000 (  3676 PWs)   bands (ev):

   -15.6314 -15.1029 -13.1446  -3.1339  -2.2554   7.9791   9.9983  10.1381

          k = 0.3583 0.5340 0.0000 (  3688 PWs)   bands (ev):

   -15.7781 -15.0886 -12.9652  -3.3394  -2.0643   8.0397   9.8713   9.9864

          k = 0.3666 0.5196 0.0000 (  3688 PWs)   bands (ev):

   -15.9166 -15.1177 -12.7331  -3.5337  -1.8917   8.1248   9.7373   9.7689

          k = 0.3750 0.5051 0.0000 (  3690 PWs)   bands (ev):

   -16.0467 -15.1744 -12.4654  -3.7168  -1.7379   8.2323   9.4566   9.6002

          k = 0.3833 0.4907 0.0000 (  3686 PWs)   bands (ev):

   -16.1686 -15.2466 -12.1754  -3.8884  -1.6029   8.3583   9.0624   9.4636

          k = 0.3916 0.4763 0.0000 (  3682 PWs)   bands (ev):

   -16.2821 -15.3263 -11.8730  -4.0486  -1.4861   8.4972   8.6274   9.3302

          k = 0.4000 0.4618 0.0000 (  3682 PWs)   bands (ev):

   -16.3873 -15.4082 -11.5651  -4.1973  -1.3866   8.1771   8.6418   9.2018

          k = 0.4083 0.4474 0.0000 (  3698 PWs)   bands (ev):

   -16.4842 -15.4890 -11.2574  -4.3345  -1.3030   7.7264   8.7833   9.0801

          k = 0.4166 0.4330 0.0000 (  3694 PWs)   bands (ev):

   -16.5726 -15.5663 -10.9544  -4.4599  -1.2339   7.2853   8.9119   8.9665

          k = 0.4250 0.4186 0.0000 (  3696 PWs)   bands (ev):

   -16.6527 -15.6388 -10.6606  -4.5734  -1.1775   6.8608   8.8617   9.0189

          k = 0.4333 0.4041 0.0000 (  3708 PWs)   bands (ev):

   -16.7244 -15.7054 -10.3802  -4.6753  -1.1322   6.4597   8.7665   8.9376

          k = 0.4417 0.3897 0.0000 (  3722 PWs)   bands (ev):

   -16.7876 -15.7653 -10.1176  -4.7653  -1.0965   6.0877   8.6816   8.8459

          k = 0.4500 0.3753 0.0000 (  3722 PWs)   bands (ev):

   -16.8425 -15.8180  -9.8772  -4.8432  -1.0687   5.7506   8.6072   8.7660

          k = 0.4583 0.3608 0.0000 (  3726 PWs)   bands (ev):

   -16.8889 -15.8631  -9.6635  -4.9093  -1.0476   5.4538   8.5438   8.6982

          k = 0.4667 0.3464 0.0000 (  3722 PWs)   bands (ev):

   -16.9269 -15.9004  -9.4808  -4.9634  -1.0318   5.2024   8.4917   8.6425

          k = 0.4750 0.3320 0.0000 (  3730 PWs)   bands (ev):

   -16.9564 -15.9295  -9.3336  -5.0055  -1.0207   5.0011   8.4509   8.5991

          k = 0.4833 0.3175 0.0000 (  3730 PWs)   bands (ev):

   -16.9775 -15.9505  -9.2253  -5.0356  -1.0132   4.8540   8.4217   8.5680

          k = 0.4917 0.3031 0.0000 (  3722 PWs)   bands (ev):

   -16.9902 -15.9631  -9.1591  -5.0536  -1.0090   4.7645   8.4041   8.5493

          k = 0.5000 0.2887 0.0000 (  3724 PWs)   bands (ev):

   -16.9944 -15.9673  -9.1369  -5.0596  -1.0075   4.7343   8.3983   8.5431

          k = 0.4750 0.2742 0.0000 (  3724 PWs)   bands (ev):

   -17.2239 -15.7157  -9.1220  -5.1553  -0.8888   4.7418   7.7110   8.4557

          k = 0.4500 0.2598 0.0000 (  3740 PWs)   bands (ev):

   -17.6538 -15.2199  -9.0778  -5.4129  -0.5620   4.7636   6.9888   7.7182

          k = 0.4250 0.2454 0.0000 (  3746 PWs)   bands (ev):

   -18.1121 -14.6522  -9.0046  -5.7733  -0.0875   4.7987   6.3014   7.0146

          k = 0.4000 0.2309 0.0000 (  3742 PWs)   bands (ev):

   -18.5623 -14.0501  -8.9027  -6.1859   0.4824   4.8428   5.6550   6.3481

          k = 0.3750 0.2165 0.0000 (  3724 PWs)   bands (ev):

   -18.9942 -13.4253  -8.7730  -6.6184   1.1125   4.8469   5.0981   5.7200

          k = 0.3500 0.2021 0.0000 (  3730 PWs)   bands (ev):

   -19.4036 -12.7837  -8.6170  -7.0511   1.7794   4.4190   5.0192   5.1317

          k = 0.3250 0.1876 0.0000 (  3714 PWs)   bands (ev):

   -19.7883 -12.1296  -8.4356  -7.4724   2.4659   3.8906   4.5847   4.6929

          k = 0.3000 0.1732 0.0000 (  3734 PWs)   bands (ev):

   -20.1472 -11.4679  -8.2311  -7.8748   3.1518   3.3931   4.0854   4.1789

          k = 0.2750 0.1588 0.0000 (  3728 PWs)   bands (ev):

   -20.4793 -10.8029  -8.2536  -8.0057   2.9331   3.5406   3.7050   3.9028

          k = 0.2500 0.1443 0.0000 (  3724 PWs)   bands (ev):

   -20.7841 -10.1399  -8.6055  -7.7622   2.5120   3.1541   3.2720   3.8602

          k = 0.2250 0.1299 0.0000 (  3732 PWs)   bands (ev):

   -21.0609  -9.4855  -8.9282  -7.5049   2.1304   2.7708   2.8803   3.4829

          k = 0.2000 0.1155 0.0000 (  3742 PWs)   bands (ev):

   -21.3094  -9.2200  -8.8469  -7.2382   1.7886   2.4248   2.5297   3.1380

          k = 0.1750 0.1010 0.0000 (  3750 PWs)   bands (ev):

   -21.5294  -9.4796  -8.2335  -6.9682   1.4867   2.1186   2.2204   2.8322

          k = 0.1500 0.0866 0.0000 (  3740 PWs)   bands (ev):

   -21.7205  -9.7061  -7.6559  -6.7019   1.2249   1.8528   1.9523   2.5668

          k = 0.1250 0.0722 0.0000 (  3744 PWs)   bands (ev):

   -21.8825  -9.8988  -7.1271  -6.4485   1.0033   1.6278   1.7255   2.3419

          k = 0.1000 0.0577 0.0000 (  3746 PWs)   bands (ev):

   -22.0152 -10.0571  -6.6617  -6.2179   0.8220   1.4435   1.5399   2.1579

          k = 0.0750 0.0433 0.0000 (  3752 PWs)   bands (ev):

   -22.1187 -10.1806  -6.2757  -6.0215   0.6809   1.3001   1.3955   2.0147

          k = 0.0500 0.0289 0.0000 (  3763 PWs)   bands (ev):

   -22.1926 -10.2691  -5.9850  -5.8705   0.5802   1.1977   1.2924   1.9123

          k = 0.0250 0.0144 0.0000 (  3761 PWs)   bands (ev):

   -22.2370 -10.3222  -5.8040  -5.7751   0.5197   1.1362   1.2305   1.8509

          k = 0.0000 0.0000 0.0000 (  3765 PWs)   bands (ev):

   -22.2518 -10.3400  -5.7424  -5.7424   0.4996   1.1157   1.2099   1.8304

     Writing all to output data dir ./tmp/graphene.save/ :
     XML data file, pseudopotentials, collected wavefunctions

     init_run     :      0.83s CPU      0.92s WALL (       1 calls)
     electrons    :     13.56s CPU     13.64s WALL (       1 calls)

     Called by init_run:
     wfcinit      :      0.00s CPU      0.00s WALL (       1 calls)
     potinit      :      0.39s CPU      0.41s WALL (       1 calls)
     hinit0       :      0.37s CPU      0.39s WALL (       1 calls)

     Called by electrons:
     c_bands      :     13.56s CPU     13.64s WALL (       1 calls)
     v_of_rho     :      0.05s CPU      0.07s WALL (       1 calls)
     newd         :      0.03s CPU      0.06s WALL (       1 calls)
     PAW_pot      :      0.04s CPU      0.04s WALL (       1 calls)

     Called by c_bands:
     init_us_2    :      0.02s CPU      0.02s WALL (      61 calls)
     cegterg      :     12.75s CPU     12.82s WALL (     177 calls)

     Called by *egterg:
     cdiaghg      :      0.19s CPU      0.19s WALL (    3080 calls)
     h_psi        :     11.58s CPU     11.64s WALL (    3257 calls)
     s_psi        :      0.21s CPU      0.21s WALL (    3257 calls)
     g_psi        :      0.10s CPU      0.10s WALL (    3019 calls)

     Called by h_psi:
     h_psi:calbec :      0.27s CPU      0.27s WALL (    3257 calls)
     vloc_psi     :     11.03s CPU     11.09s WALL (    3257 calls)
                                        0.00s GPU  (    3257 calls)
     add_vuspsi   :      0.24s CPU      0.24s WALL (    3257 calls)

     General routines
     calbec       :      0.26s CPU      0.26s WALL (    3257 calls)
     fft          :      0.30s CPU      0.31s WALL (      13 calls)
     ffts         :      0.29s CPU      0.29s WALL (       1 calls)
     fftw         :      9.52s CPU      9.57s WALL (   25368 calls)
     interpolate  :      0.29s CPU      0.30s WALL (       1 calls)
     davcio       :      0.02s CPU      0.02s WALL (     122 calls)

     Parallel routines

     PWSCF        :     14.43s CPU     14.63s WALL


   This run was terminated on:  15: 6:10  28Mar2026            

=------------------------------------------------------------------------------=
   JOB DONE.
=------------------------------------------------------------------------------=
