
     Program PWSCF v.7.5 starts on 28Mar2026 at 14:56:37 

     This program is part of the open-source Quantum ESPRESSO suite
     for quantum simulation of materials; please cite
         "P. Giannozzi et al., J. Phys.:Condens. Matter 21 395502 (2009);
         "P. Giannozzi et al., J. Phys.:Condens. Matter 29 465901 (2017);
         "P. Giannozzi et al., J. Chem. Phys. 152 154105 (2020);
          URL http://www.quantum-espresso.org", 
     in publications or presentations arising from this work. More details at
     http://www.quantum-espresso.org/quote

     Parallel version (MPI & OpenMP), running on       1 processor cores
     Number of MPI processes:                 1
     Threads/MPI process:                     1

     MPI processes distributed on     1 nodes
     6777 MiB available memory on the printing compute node when the environment starts

     Reading input from graphene_nscf.in

     Current dimensions of program PWSCF are:
     Max number of different atomic species (ntypx) = 10
     Max number of k-points (npk) =  40000
     Max angular momentum in pseudopotentials (lmaxx) =  4
     file C.pbe-n-kjpaw_psl.1.0.0.UPF: wavefunction(s)  2S 2P renormalized

     Atomic positions and unit cell read from directory:
     ./tmp/graphene.save/


     Subspace diagonalization in iterative solution of the eigenvalue problem:
     a serial algorithm will be used


     G-vector sticks info
     --------------------
     sticks:   dense  smooth     PW     G-vecs:    dense   smooth      PW
     Sum         595     241     85               117927    29947    5627

     Using Slab Decomposition



     bravais-lattice index     =            4
     lattice parameter (alat)  =       4.6540  a.u.
     unit-cell volume          =     872.9910 (a.u.)^3
     number of atoms/cell      =            2
     number of atomic types    =            1
     number of electrons       =         8.00
     number of Kohn-Sham states=            8
     kinetic-energy cutoff     =      40.0000  Ry
     charge density cutoff     =     400.0000  Ry
     Exchange-correlation= SLA  PW   PBX  PBC
                           (   1   4   3   4   0   0   0)

     celldm(1)=   4.654000  celldm(2)=   0.000000  celldm(3)=  10.000000
     celldm(4)=   0.000000  celldm(5)=   0.000000  celldm(6)=   0.000000

     crystal axes: (cart. coord. in units of alat)
               a(1) = (   1.000000   0.000000   0.000000 )  
               a(2) = (  -0.500000   0.866025   0.000000 )  
               a(3) = (   0.000000   0.000000  10.000000 )  

     reciprocal axes: (cart. coord. in units 2 pi/alat)
               b(1) = (  1.000000  0.577350 -0.000000 )  
               b(2) = (  0.000000  1.154701  0.000000 )  
               b(3) = (  0.000000 -0.000000  0.100000 )  


     PseudoPot. # 1 for C  read from file:
     ./C.pbe-n-kjpaw_psl.1.0.0.UPF
     MD5 check sum: 5d2aebdfa2cae82b50a7e79e9516da0f
     Pseudo is Projector augmented-wave + core cor, Zval =  4.0
     Generated using "atomic" code by A. Dal Corso  v.5.1
     Shape of augmentation charge: PSQ
     Using radial grid of 1073 points,  4 beta functions with: 
                l(1) =   0
                l(2) =   0
                l(3) =   1
                l(4) =   1
     Q(r) pseudized with 0 coefficients 


     atomic species   valence    mass     pseudopotential
     C                 4.00    12.01070     C ( 1.00)

     24 Sym. Ops., with inversion, found (12 have fractional translation)



   Cartesian axes

     site n.     atom                  positions (alat units)
         1        C      tau(   1) = (   0.0000000   0.0000000   0.0000000  )
         2        C      tau(   2) = (   0.0000000   0.5773503   0.0000000  )

     number of k points=    37  Marzari-Vanderbilt smearing, width (Ry)=  0.0100
                       cart. coord. in units 2pi/alat
        k(    1) = (   0.0000000   0.0000000   0.0000000), wk =   0.0061728
        k(    2) = (   0.0000000   0.0641500   0.0000000), wk =   0.0370370
        k(    3) = (   0.0000000   0.1283001   0.0000000), wk =   0.0370370
        k(    4) = (   0.0000000   0.1924501   0.0000000), wk =   0.0370370
        k(    5) = (   0.0000000   0.2566001   0.0000000), wk =   0.0370370
        k(    6) = (   0.0000000   0.3207501   0.0000000), wk =   0.0370370
        k(    7) = (   0.0000000   0.3849002   0.0000000), wk =   0.0370370
        k(    8) = (   0.0000000   0.4490502   0.0000000), wk =   0.0370370
        k(    9) = (   0.0000000   0.5132002   0.0000000), wk =   0.0370370
        k(   10) = (   0.0000000  -0.5773503   0.0000000), wk =   0.0185185
        k(   11) = (   0.0555556   0.0962250   0.0000000), wk =   0.0370370
        k(   12) = (   0.0555556   0.1603751   0.0000000), wk =   0.0740741
        k(   13) = (   0.0555556   0.2245251   0.0000000), wk =   0.0740741
        k(   14) = (   0.0555556   0.2886751   0.0000000), wk =   0.0740741
        k(   15) = (   0.0555556   0.3528252   0.0000000), wk =   0.0740741
        k(   16) = (   0.0555556   0.4169752   0.0000000), wk =   0.0740741
        k(   17) = (   0.0555556   0.4811252   0.0000000), wk =   0.0740741
        k(   18) = (   0.0555556   0.5452753   0.0000000), wk =   0.0740741
        k(   19) = (   0.1111111   0.1924501   0.0000000), wk =   0.0370370
        k(   20) = (   0.1111111   0.2566001   0.0000000), wk =   0.0740741
        k(   21) = (   0.1111111   0.3207501   0.0000000), wk =   0.0740741
        k(   22) = (   0.1111111   0.3849002   0.0000000), wk =   0.0740741
        k(   23) = (   0.1111111   0.4490502   0.0000000), wk =   0.0740741
        k(   24) = (   0.1111111   0.5132002   0.0000000), wk =   0.0740741
        k(   25) = (   0.1111111   0.5773503   0.0000000), wk =   0.0370370
        k(   26) = (   0.1666667   0.2886751   0.0000000), wk =   0.0370370
        k(   27) = (   0.1666667   0.3528252   0.0000000), wk =   0.0740741
        k(   28) = (   0.1666667   0.4169752   0.0000000), wk =   0.0740741
        k(   29) = (   0.1666667   0.4811252   0.0000000), wk =   0.0740741
        k(   30) = (   0.1666667   0.5452753   0.0000000), wk =   0.0740741
        k(   31) = (   0.2222222   0.3849002   0.0000000), wk =   0.0370370
        k(   32) = (   0.2222222   0.4490502   0.0000000), wk =   0.0740741
        k(   33) = (   0.2222222   0.5132002   0.0000000), wk =   0.0740741
        k(   34) = (   0.2222222   0.5773503   0.0000000), wk =   0.0370370
        k(   35) = (   0.2777778   0.4811252   0.0000000), wk =   0.0370370
        k(   36) = (   0.2777778   0.5452753   0.0000000), wk =   0.0740741
        k(   37) = (   0.3333333   0.5773503   0.0000000), wk =   0.0123457

     Dense  grid:   117927 G-vectors     FFT dimensions: (  30,  30, 300)

     Smooth grid:    29947 G-vectors     FFT dimensions: (  24,  24, 192)

     Estimated max dynamical RAM per process >     117.05 MB

     Check: negative core charge=   -0.000002

     The potential is recalculated from file :
     ./tmp/graphene.save/charge-density


     negative rho (up, down):  1.518E-04 0.000E+00
     Starting wfcs are    8 randomized atomic wfcs
     Checking if some PAW data can be deallocated... 

     Band Structure Calculation
     Davidson diagonalization with overlap

     ethr =  1.25E-10,  avg # of iterations = 50.0

     total cpu time spent up to now is        8.9 secs

     End of band structure calculation

          k = 0.0000 0.0000 0.0000 (  3765 PWs)   bands (ev):

   -22.2518 -10.3400  -5.7424  -5.7424   0.4996   1.1157   1.2099   1.8304

          k = 0.0000 0.0642 0.0000 (  3761 PWs)   bands (ev):

   -22.1787 -10.2525  -6.0406  -5.8996   0.5991   1.2169   1.3117   1.9315

          k = 0.0000 0.1283 0.0000 (  3744 PWs)   bands (ev):

   -21.9599  -9.9910  -6.8597  -6.3168   0.8976   1.5203   1.6173   2.2346

          k = 0.0000 0.1925 0.0000 (  3742 PWs)   bands (ev):

   -21.5963  -9.5588  -8.0363  -6.8786   1.3950   2.0255   2.1265   2.7392

          k = 0.0000 0.2566 0.0000 (  3740 PWs)   bands (ev):

   -21.0899  -9.4136  -8.9621  -7.4756   2.0905   2.7304   2.8393   3.4427

          k = 0.0000 0.3208 0.0000 (  3728 PWs)   bands (ev):

   -20.4438 -10.8768  -8.2128  -8.0317   2.9823   3.5651   3.7556   3.8581

          k = 0.0000 0.3849 0.0000 (  3722 PWs)   bands (ev):

   -19.6629 -12.3487  -8.4987  -7.3338   2.2359   4.0641   4.7623   4.8712

          k = 0.0000 0.4491 0.0000 (  3738 PWs)   bands (ev):

   -18.7568 -13.7748  -8.8485  -6.3771   0.7566   4.8599   5.3861   6.0641

          k = 0.0000 0.5132 0.0000 (  3744 PWs)   bands (ev):

   -17.7552 -15.0979  -9.0641  -5.4861  -0.4673   4.7703   6.8328   7.5588

          k = 0.0000-0.5774 0.0000 (  3724 PWs)   bands (ev):

   -16.9944 -15.9673  -9.1369  -5.0596  -1.0075   4.7343   8.3983   8.5431

          k = 0.0556 0.0962 0.0000 (  3749 PWs)   bands (ev):

   -22.0328 -10.0780  -6.5723  -6.2140   0.7981   1.4192   1.5154   2.1336

          k = 0.0556 0.1604 0.0000 (  3749 PWs)   bands (ev):

   -21.7415  -9.7310  -7.5175  -6.7574   1.1962   1.8236   1.9228   2.5376

          k = 0.0556 0.2245 0.0000 (  3740 PWs)   bands (ev):

   -21.3066  -9.2163  -8.7523  -7.3799   1.7929   2.4291   2.5338   3.1423

          k = 0.0556 0.2887 0.0000 (  3734 PWs)   bands (ev):

   -20.7303 -10.1461  -8.5422  -7.9835   2.5871   3.2300   3.3485   3.9350

          k = 0.0556 0.3528 0.0000 (  3720 PWs)   bands (ev):

   -20.0167 -11.5985  -8.5105  -7.7250   2.9510   3.5762   4.2604   4.3665

          k = 0.0556 0.4170 0.0000 (  3735 PWs)   bands (ev):

   -19.1726 -13.0397  -8.9273  -6.7980   1.4469   4.7454   5.3120   5.4592

          k = 0.0556 0.4811 0.0000 (  3735 PWs)   bands (ev):

   -18.2133 -14.4150  -9.2142  -5.8444   0.0742   5.1392   6.1551   6.8562

          k = 0.0556 0.5453 0.0000 (  3735 PWs)   bands (ev):

   -17.2193 -15.6220  -9.3602  -5.1111  -0.8780   5.0715   7.6989   8.4299

          k = 0.1111 0.1925 0.0000 (  3749 PWs)   bands (ev):

   -21.3789  -9.3013  -8.4187  -7.4651   1.6938   2.3285   2.4320   3.0420

          k = 0.1111 0.2566 0.0000 (  3739 PWs)   bands (ev):

   -20.8741  -9.5571  -8.7082  -8.2088   2.3895   3.0335   3.1450   3.7460

          k = 0.1111 0.3208 0.0000 (  3720 PWs)   bands (ev):

   -20.2303 -10.8723  -8.8519  -7.9630   3.2819   3.4879   3.9544   4.0615

          k = 0.1111 0.3849 0.0000 (  3736 PWs)   bands (ev):

   -19.4529 -12.2600  -9.3634  -7.0877   2.0497   4.3677   5.0480   5.1813

          k = 0.1111 0.4491 0.0000 (  3731 PWs)   bands (ev):

   -18.5520 -13.6368  -9.7345  -6.1316   0.6416   5.6306   6.1420   6.3414

          k = 0.1111 0.5132 0.0000 (  3720 PWs)   bands (ev):

   -17.5582 -14.9302  -9.9595  -5.2317  -0.5477   6.0053   7.1204   7.8058

          k = 0.1111 0.5774 0.0000 (  3726 PWs)   bands (ev):

   -16.8068 -15.7836 -10.0350  -4.7925  -1.0864   5.9714   8.6556   8.8180

          k = 0.1667 0.2887 0.0000 (  3737 PWs)   bands (ev):

   -20.3017 -10.4772  -9.1326  -8.0428   3.1836   3.7104   3.8372   3.9597

          k = 0.1667 0.3528 0.0000 (  3743 PWs)   bands (ev):

   -19.5939 -11.5906  -9.8982  -7.2352   2.4204   4.1725   4.8367   4.9780

          k = 0.1667 0.4170 0.0000 (  3738 PWs)   bands (ev):

   -18.7585 -12.8474 -10.4321  -6.3151   1.0936   5.3519   6.0228   6.1996

          k = 0.1667 0.4811 0.0000 (  3729 PWs)   bands (ev):

   -17.8123 -14.1252 -10.7695  -5.3553  -0.1622   6.7072   7.3627   7.3876

          k = 0.1667 0.5453 0.0000 (  3714 PWs)   bands (ev):

   -16.8373 -15.2787 -10.9343  -4.5888  -1.0849   7.2929   8.2524   8.6454

          k = 0.2222 0.3849 0.0000 (  3747 PWs)   bands (ev):

   -18.8278 -12.3902 -10.8700  -6.3780   1.2708   5.2547   5.9134   6.0980

          k = 0.2222 0.4491 0.0000 (  3723 PWs)   bands (ev):

   -17.9438 -13.3920 -11.5297  -5.4298   0.1002   6.5199   7.1230   7.4208

          k = 0.2222 0.5132 0.0000 (  3698 PWs)   bands (ev):

   -16.9752 -14.5077 -11.8705  -4.4977  -0.9732   7.9436   8.1611   8.8423

          k = 0.2222 0.5774 0.0000 (  3680 PWs)   bands (ev):

   -16.2451 -15.2992 -11.9751  -3.9963  -1.5232   8.4497   8.7756   9.3744

          k = 0.2778 0.4811 0.0000 (  3699 PWs)   bands (ev):

   -17.0301 -14.0203 -12.4118  -4.4752  -0.9097   7.8508   7.9697   8.8440

          k = 0.2778 0.5453 0.0000 (  3691 PWs)   bands (ev):

   -16.0933 -14.8361 -12.8435  -3.5957  -1.8118   8.0750   9.2644  10.1047

          k = 0.3333 0.5774 0.0000 (  3687 PWs)   bands (ev):

   -15.3130 -15.3130 -13.2917  -2.6896  -2.6896   7.9320  10.2112  10.2112

     the Fermi energy is    -2.6706 ev
     (compare with:    -2.6702 eV, computed in scf)

     Writing all to output data dir ./tmp/graphene.save/ :
     XML data file, pseudopotentials, collected wavefunctions

     init_run     :      0.82s CPU      0.87s WALL (       1 calls)
     electrons    :      7.87s CPU      7.97s WALL (       1 calls)

     Called by init_run:
     wfcinit      :      0.00s CPU      0.00s WALL (       1 calls)
     potinit      :      0.38s CPU      0.40s WALL (       1 calls)
     hinit0       :      0.36s CPU      0.36s WALL (       1 calls)

     Called by electrons:
     c_bands      :      7.87s CPU      7.96s WALL (       1 calls)
     v_of_rho     :      0.05s CPU      0.07s WALL (       1 calls)
     newd         :      0.05s CPU      0.07s WALL (       1 calls)
     PAW_pot      :      0.04s CPU      0.04s WALL (       1 calls)

     Called by c_bands:
     init_us_2    :      0.01s CPU      0.01s WALL (      37 calls)
     cegterg      :      7.31s CPU      7.39s WALL (     107 calls)

     Called by *egterg:
     cdiaghg      :      0.11s CPU      0.11s WALL (    1886 calls)
     h_psi        :      6.70s CPU      6.78s WALL (    1993 calls)
     s_psi        :      0.12s CPU      0.12s WALL (    1993 calls)
     g_psi        :      0.06s CPU      0.06s WALL (    1849 calls)

     Called by h_psi:
     h_psi:calbec :      0.15s CPU      0.16s WALL (    1993 calls)
     vloc_psi     :      6.38s CPU      6.45s WALL (    1993 calls)
                                        0.00s GPU  (    1993 calls)
     add_vuspsi   :      0.14s CPU      0.14s WALL (    1993 calls)

     General routines
     calbec       :      0.15s CPU      0.15s WALL (    1993 calls)
     fft          :      0.30s CPU      0.30s WALL (      13 calls)
     ffts         :      0.29s CPU      0.28s WALL (       1 calls)
     fftw         :      5.50s CPU      5.56s WALL (   15592 calls)
     interpolate  :      0.29s CPU      0.29s WALL (       1 calls)
     davcio       :      0.01s CPU      0.02s WALL (      74 calls)

     Parallel routines

     PWSCF        :      8.73s CPU      8.90s WALL


   This run was terminated on:  14:56:46  28Mar2026            

=------------------------------------------------------------------------------=
   JOB DONE.
=------------------------------------------------------------------------------=
