
     Program PWSCF v.7.5 starts on 28Mar2026 at 14:53:21 

     This program is part of the open-source Quantum ESPRESSO suite
     for quantum simulation of materials; please cite
         "P. Giannozzi et al., J. Phys.:Condens. Matter 21 395502 (2009);
         "P. Giannozzi et al., J. Phys.:Condens. Matter 29 465901 (2017);
         "P. Giannozzi et al., J. Chem. Phys. 152 154105 (2020);
          URL http://www.quantum-espresso.org", 
     in publications or presentations arising from this work. More details at
     http://www.quantum-espresso.org/quote

     Parallel version (MPI & OpenMP), running on       1 processor cores
     Number of MPI processes:                 1
     Threads/MPI process:                     1

     MPI processes distributed on     1 nodes
     6791 MiB available memory on the printing compute node when the environment starts

     Reading input from graphene_scf.in

     Current dimensions of program PWSCF are:
     Max number of different atomic species (ntypx) = 10
     Max number of k-points (npk) =  40000
     Max angular momentum in pseudopotentials (lmaxx) =  4
     file C.pbe-n-kjpaw_psl.1.0.0.UPF: wavefunction(s)  2S 2P renormalized

     Subspace diagonalization in iterative solution of the eigenvalue problem:
     a serial algorithm will be used


     G-vector sticks info
     --------------------
     sticks:   dense  smooth     PW     G-vecs:    dense   smooth      PW
     Sum         595     241     85               117927    29947    5627

     Using Slab Decomposition



     bravais-lattice index     =            4
     lattice parameter (alat)  =       4.6540  a.u.
     unit-cell volume          =     872.9910 (a.u.)^3
     number of atoms/cell      =            2
     number of atomic types    =            1
     number of electrons       =         8.00
     number of Kohn-Sham states=            8
     kinetic-energy cutoff     =      40.0000  Ry
     charge density cutoff     =     400.0000  Ry
     scf convergence threshold =      1.0E-08
     mixing beta               =       0.7000
     number of iterations used =            8  plain     mixing
     Exchange-correlation= SLA  PW   PBX  PBC
                           (   1   4   3   4   0   0   0)

     celldm(1)=   4.654000  celldm(2)=   0.000000  celldm(3)=  10.000000
     celldm(4)=   0.000000  celldm(5)=   0.000000  celldm(6)=   0.000000

     crystal axes: (cart. coord. in units of alat)
               a(1) = (   1.000000   0.000000   0.000000 )  
               a(2) = (  -0.500000   0.866025   0.000000 )  
               a(3) = (   0.000000   0.000000  10.000000 )  

     reciprocal axes: (cart. coord. in units 2 pi/alat)
               b(1) = (  1.000000  0.577350 -0.000000 )  
               b(2) = (  0.000000  1.154701  0.000000 )  
               b(3) = (  0.000000 -0.000000  0.100000 )  


     PseudoPot. # 1 for C  read from file:
     ./C.pbe-n-kjpaw_psl.1.0.0.UPF
     MD5 check sum: 5d2aebdfa2cae82b50a7e79e9516da0f
     Pseudo is Projector augmented-wave + core cor, Zval =  4.0
     Generated using "atomic" code by A. Dal Corso  v.5.1
     Shape of augmentation charge: PSQ
     Using radial grid of 1073 points,  4 beta functions with: 
                l(1) =   0
                l(2) =   0
                l(3) =   1
                l(4) =   1
     Q(r) pseudized with 0 coefficients 


     atomic species   valence    mass     pseudopotential
     C                 4.00    12.01070     C ( 1.00)

     24 Sym. Ops., with inversion, found (12 have fractional translation)



   Cartesian axes

     site n.     atom                  positions (alat units)
         1        C      tau(   1) = (   0.0000000   0.0000000   0.0000000  )
         2        C      tau(   2) = (   0.0000000   0.5773503   0.0000000  )

     number of k points=    19  Marzari-Vanderbilt smearing, width (Ry)=  0.0100
                       cart. coord. in units 2pi/alat
        k(    1) = (   0.0000000   0.0000000   0.0000000), wk =   0.0138889
        k(    2) = (   0.0000000   0.0962250   0.0000000), wk =   0.0833333
        k(    3) = (   0.0000000   0.1924501   0.0000000), wk =   0.0833333
        k(    4) = (   0.0000000   0.2886751   0.0000000), wk =   0.0833333
        k(    5) = (   0.0000000   0.3849002   0.0000000), wk =   0.0833333
        k(    6) = (   0.0000000   0.4811252   0.0000000), wk =   0.0833333
        k(    7) = (   0.0000000  -0.5773503   0.0000000), wk =   0.0416667
        k(    8) = (   0.0833333   0.1443376   0.0000000), wk =   0.0833333
        k(    9) = (   0.0833333   0.2405626   0.0000000), wk =   0.1666667
        k(   10) = (   0.0833333   0.3367877   0.0000000), wk =   0.1666667
        k(   11) = (   0.0833333   0.4330127   0.0000000), wk =   0.1666667
        k(   12) = (   0.0833333   0.5292377   0.0000000), wk =   0.1666667
        k(   13) = (   0.1666667   0.2886751   0.0000000), wk =   0.0833333
        k(   14) = (   0.1666667   0.3849002   0.0000000), wk =   0.1666667
        k(   15) = (   0.1666667   0.4811252   0.0000000), wk =   0.1666667
        k(   16) = (   0.1666667   0.5773503   0.0000000), wk =   0.0833333
        k(   17) = (   0.2500000   0.4330127   0.0000000), wk =   0.0833333
        k(   18) = (   0.2500000   0.5292377   0.0000000), wk =   0.1666667
        k(   19) = (   0.3333333   0.5773503   0.0000000), wk =   0.0277778

     Dense  grid:   117927 G-vectors     FFT dimensions: (  30,  30, 300)

     Smooth grid:    29947 G-vectors     FFT dimensions: (  24,  24, 192)

     Estimated max dynamical RAM per process >     158.35 MB

     Check: negative core charge=   -0.000002

     Initial potential from superposition of free atoms

     starting charge       7.9999, renormalised to       8.0000

     negative rho (up, down):  1.330E-04 0.000E+00
     Starting wfcs are    8 randomized atomic wfcs
     Checking if some PAW data can be deallocated... 

     total cpu time spent up to now is        1.4 secs

     Self-consistent Calculation

     iteration #  1     ecut=    40.00 Ry     beta= 0.70
     Davidson diagonalization with overlap
     ethr =  1.00E-02,  avg # of iterations =  5.7

     negative rho (up, down):  1.356E-04 0.000E+00

     total cpu time spent up to now is        2.4 secs

     total energy              =     -36.85684277 Ry
     estimated scf accuracy    <       0.19808660 Ry

     iteration #  2     ecut=    40.00 Ry     beta= 0.70
     Davidson diagonalization with overlap
     ethr =  2.48E-03,  avg # of iterations =  2.9

     negative rho (up, down):  1.440E-04 0.000E+00

     total cpu time spent up to now is        3.1 secs

     total energy              =     -36.88572033 Ry
     estimated scf accuracy    <       0.00220842 Ry

     iteration #  3     ecut=    40.00 Ry     beta= 0.70
     Davidson diagonalization with overlap
     c_bands:  1 eigenvalues not converged
     c_bands:  2 eigenvalues not converged
     c_bands:  1 eigenvalues not converged
     ethr =  2.76E-05,  avg # of iterations = 12.8

     negative rho (up, down):  1.524E-04 0.000E+00

     total cpu time spent up to now is        4.3 secs

     total energy              =     -36.88595177 Ry
     estimated scf accuracy    <       0.00016144 Ry

     iteration #  4     ecut=    40.00 Ry     beta= 0.70
     Davidson diagonalization with overlap
     c_bands:  2 eigenvalues not converged
     ethr =  2.02E-06,  avg # of iterations =  7.4

     negative rho (up, down):  1.521E-04 0.000E+00

     total cpu time spent up to now is        5.2 secs

     total energy              =     -36.88596115 Ry
     estimated scf accuracy    <       0.00000106 Ry

     iteration #  5     ecut=    40.00 Ry     beta= 0.70
     Davidson diagonalization with overlap
     ethr =  1.32E-08,  avg # of iterations =  3.3

     negative rho (up, down):  1.518E-04 0.000E+00

     total cpu time spent up to now is        6.0 secs

     total energy              =     -36.88596192 Ry
     estimated scf accuracy    <       0.00000002 Ry

     iteration #  6     ecut=    40.00 Ry     beta= 0.70
     Davidson diagonalization with overlap
     ethr =  2.96E-10,  avg # of iterations =  2.1

     negative rho (up, down):  1.518E-04 0.000E+00

     total cpu time spent up to now is        6.9 secs

     End of self-consistent calculation

          k = 0.0000 0.0000 0.0000 (  3765 PWs)   bands (ev):

   -22.2514 -10.3396  -5.7420  -5.7420   0.4996   1.1157   1.2099   1.8306

          k = 0.0000 0.0962 0.0000 (  3750 PWs)   bands (ev):

   -22.0870 -10.1429  -6.3941  -6.0820   0.7235   1.3433   1.4390   2.0579

          k = 0.0000 0.1925 0.0000 (  3742 PWs)   bands (ev):

   -21.5959  -9.5584  -8.0359  -6.8782   1.3950   2.0255   2.1264   2.7393

          k = 0.0000 0.2887 0.0000 (  3724 PWs)   bands (ev):

   -20.7836 -10.1395  -8.6051  -7.7617   2.5121   3.1541   3.2721   3.8603

          k = 0.0000 0.3849 0.0000 (  3722 PWs)   bands (ev):

   -19.6625 -12.3483  -8.4982  -7.3334   2.2363   4.0641   4.7633   4.8733

          k = 0.0000 0.4811 0.0000 (  3752 PWs)   bands (ev):

   -18.2633 -14.4541  -8.9734  -5.9066   0.0943   4.8132   6.0810   6.7882

          k = 0.0000-0.5774 0.0000 (  3724 PWs)   bands (ev):

   -16.9939 -15.9668  -9.1364  -5.0593  -1.0072   4.7347   8.3984   8.5432

          k = 0.0833 0.1443 0.0000 (  3745 PWs)   bands (ev):

   -21.7593  -9.7522  -7.4303  -6.7626   1.1714   1.7983   1.8973   2.5124

          k = 0.0833 0.2406 0.0000 (  3743 PWs)   bands (ev):

   -21.1076  -9.1442  -8.9821  -7.7648   2.0665   2.7062   2.8139   3.4192

          k = 0.0833 0.3368 0.0000 (  3724 PWs)   bands (ev):

   -20.1408 -11.2223  -8.6544  -7.8632   3.2503   3.4047   4.0833   4.1886

          k = 0.0833 0.4330 0.0000 (  3735 PWs)   bands (ev):

   -18.8776 -13.3508  -9.2917  -6.4797   1.0448   5.1624   5.6649   5.8788

          k = 0.0833 0.5292 0.0000 (  3729 PWs)   bands (ev):

   -17.3938 -15.2981  -9.6214  -5.1664  -0.7298   5.4744   7.3852   8.0959

          k = 0.1667 0.2887 0.0000 (  3737 PWs)   bands (ev):

   -20.3013 -10.4767  -9.1321  -8.0425   3.1836   3.7108   3.8372   3.9597

          k = 0.1667 0.3849 0.0000 (  3734 PWs)   bands (ev):

   -19.1910 -12.2085 -10.1916  -6.7859   1.7569   4.7389   5.4074   5.5635

          k = 0.1667 0.4811 0.0000 (  3729 PWs)   bands (ev):

   -17.8118 -14.1248 -10.7690  -5.3550  -0.1618   6.7073   7.3628   7.3880

          k = 0.1667 0.5774 0.0000 (  3694 PWs)   bands (ev):

   -16.5721 -15.5658 -10.9542  -4.4594  -1.2335   7.2861   8.9667   9.1551

          k = 0.2500 0.4330 0.0000 (  3731 PWs)   bands (ev):

   -17.9600 -13.2447 -11.6807  -5.4393   0.1375   6.4958   7.0917   7.3955

          k = 0.2500 0.5292 0.0000 (  3695 PWs)   bands (ev):

   -16.5337 -14.6706 -12.3898  -4.0493  -1.3875   8.1860   8.6041   9.5502

          k = 0.3333 0.5774 0.0000 (  3687 PWs)   bands (ev):

   -15.3126 -15.3126 -13.2913  -2.6892  -2.6892   7.9322  10.2115  10.2115

     the Fermi energy is    -2.6702 ev

!    total energy              =     -36.88596193 Ry
     total all-electron energy =      -152.414158 Ry
     estimated scf accuracy    <          9.8E-10 Ry
     smearing contrib. (-TS)   =      -0.00009116 Ry
     internal energy E=F+TS    =     -36.88587077 Ry

     The total energy is F=E-TS. E is the sum of the following terms:
     one-electron contribution =    -286.63101282 Ry
     hartree contribution      =     144.64866362 Ry
     xc contribution           =      -9.27923376 Ry
     ewald contribution        =     126.70974930 Ry
     one-center paw contrib.   =     -12.33403712 Ry

     convergence has been achieved in   6 iterations

     Writing all to output data dir ./tmp/graphene.save/ :
     XML data file, charge density, pseudopotentials, collected wavefunctions

     init_run     :      1.26s CPU      1.34s WALL (       1 calls)
     electrons    :      5.12s CPU      5.57s WALL (       1 calls)

     Called by init_run:
     wfcinit      :      0.40s CPU      0.41s WALL (       1 calls)
     potinit      :      0.41s CPU      0.43s WALL (       1 calls)
     hinit0       :      0.38s CPU      0.39s WALL (       1 calls)

     Called by electrons:
     c_bands      :      3.41s CPU      3.43s WALL (       6 calls)
     sum_band     :      0.76s CPU      0.97s WALL (       6 calls)
     v_of_rho     :      0.42s CPU      0.48s WALL (       7 calls)
     newd         :      0.27s CPU      0.46s WALL (       7 calls)
     PAW_pot      :      0.33s CPU      0.34s WALL (       7 calls)
     mix_rho      :      0.03s CPU      0.03s WALL (       6 calls)

     Called by c_bands:
     init_us_2    :      0.08s CPU      0.08s WALL (     247 calls)
     cegterg      :      3.30s CPU      3.32s WALL (     114 calls)

     Called by *egterg:
     cdiaghg      :      0.05s CPU      0.06s WALL (     764 calls)
     h_psi        :      3.23s CPU      3.24s WALL (     783 calls)
     s_psi        :      0.05s CPU      0.06s WALL (     783 calls)
     g_psi        :      0.02s CPU      0.02s WALL (     650 calls)

     Called by h_psi:
     h_psi:calbec :      0.07s CPU      0.07s WALL (     783 calls)
     vloc_psi     :      3.08s CPU      3.09s WALL (     783 calls)
                                        0.00s GPU  (     783 calls)
     add_vuspsi   :      0.06s CPU      0.06s WALL (     783 calls)

     General routines
     calbec       :      0.09s CPU      0.09s WALL (     897 calls)
     fft          :      0.45s CPU      0.46s WALL (      89 calls)
     ffts         :      0.31s CPU      0.31s WALL (      13 calls)
     fftw         :      2.94s CPU      2.96s WALL (    7280 calls)
     interpolate  :      0.32s CPU      0.32s WALL (       7 calls)

     Parallel routines

     PWSCF        :      6.43s CPU      6.96s WALL


   This run was terminated on:  14:53:28  28Mar2026            

=------------------------------------------------------------------------------=
   JOB DONE.
=------------------------------------------------------------------------------=
